LAMMPS (17 Nov 2015)
WARNING: OMP_NUM_THREADS environment is not set. (../comm.cpp:90)
  using 1 OpenMP thread(s) per MPI task
# 3d Lennard-Jones gas
units lj
dimension 3
boundary p p p
atom_style atomic

lattice fcc 0.01
Lattice spacing in x,y,z = 7.36806 7.36806 7.36806
region simbox block 0 10 0 10 0 10
create_box 1 simbox
Created orthogonal box = (0 0 0) to (73.6806 73.6806 73.6806)
  1 by 1 by 1 MPI processor grid
create_atoms 1 box
Created 4000 atoms

mass 1 1.0
velocity all create ${temp} 87287
velocity all create 1.000000 87287

pair_style lj/cut 3.0
pair_coeff 1 1 1.0 1.0 3.0

fix 1 all nve

compute msd all msd com yes

dump 1 all custom 10 dump.lammpstrj id type x y z vx vy vz
thermo_style custom step temp c_msd[4]
thermo 100
run 5000
Neighbor list info ...
  1 neighbor list requests
  update every 1 steps, delay 10 steps, check yes
  max neighbors/atom: 2000, page size: 100000
  master list distance cutoff = 3.3
  ghost atom cutoff = 3.3
  binsize = 1.65 -> bins = 45 45 45
Memory usage per processor = 4.84291 Mbytes
Step Temp msd[4] 
       0            1 2.159838e-25 
     100    1.0000001    0.7498125 
     200    1.0037098    3.0001748 
     300     1.025356    6.7042034 
     400    1.0290138    11.792858 
     500    1.0343648    18.267047 
     600     1.034372    26.067827 
     700    1.0345838    35.105559 
     800    1.0348236    45.345633 
     900    1.0363473    56.788435 
    1000    1.0379549    69.357572 
    1100    1.0384284     83.04334 
    1200    1.0425053    97.682708 
    1300    1.0389957    113.31836 
    1400    1.0422679    129.99705 
    1500    1.0377201    147.66721 
    1600    1.0409096    166.42301 
    1700    1.0442435     186.2175 
    1800    1.0435829    206.94857 
    1900    1.0428258    228.54518 
    2000    1.0442476    251.02793 
    2100    1.0449341    274.12307 
    2200    1.0463963    297.82653 
    2300    1.0478486    322.10081 
    2400    1.0451106    347.10875 
    2500    1.0462428    372.79618 
    2600    1.0477605    399.08476 
    2700    1.0454041    426.00393 
    2800    1.0454548    453.55734 
    2900    1.0420319    481.80058 
    3000    1.0446662    510.79807 
    3100     1.043175    540.23625 
    3200    1.0487203    570.30057 
    3300    1.0484037     600.8626 
    3400    1.0492773    631.89589 
    3500    1.0469783     663.3951 
    3600    1.0429616    695.41896 
    3700     1.043553    727.76946 
    3800    1.0487941    760.51361 
    3900    1.0472063    793.68331 
    4000    1.0475549    827.25644 
    4100    1.0501452    861.19533 
    4200    1.0487851    895.54536 
    4300    1.0498576    930.18298 
    4400    1.0445982     965.1272 
    4500    1.0444317    1000.3945 
    4600    1.0479912    1035.8553 
    4700    1.0475704    1071.9344 
    4800    1.0506212    1108.3718 
    4900    1.0504042    1145.0135 
    5000    1.0474413    1182.0886 
Loop time of 4.62053 on 1 procs for 5000 steps with 4000 atoms

Performance: 467479.043 tau/day, 1082.127 timesteps/s
97.9% CPU use with 1 MPI tasks x 1 OpenMP threads

MPI task timing breakdown:
Section |  min time  |  avg time  |  max time  |%varavg| %total
---------------------------------------------------------------
Pair    | 0.32865    | 0.32865    | 0.32865    |   0.0 |  7.11
Neigh   | 0.40867    | 0.40867    | 0.40867    |   0.0 |  8.84
Comm    | 0.060161   | 0.060161   | 0.060161   |   0.0 |  1.30
Output  | 3.6511     | 3.6511     | 3.6511     |   0.0 | 79.02
Modify  | 0.14629    | 0.14629    | 0.14629    |   0.0 |  3.17
Other   |            | 0.02563    |            |       |  0.55

Nlocal:    4000 ave 4000 max 4000 min
Histogram: 1 0 0 0 0 0 0 0 0 0
Nghost:    1180 ave 1180 max 1180 min
Histogram: 1 0 0 0 0 0 0 0 0 0
Neighs:    3047 ave 3047 max 3047 min
Histogram: 1 0 0 0 0 0 0 0 0 0

Total # of neighbors = 3047
Ave neighs/atom = 0.76175
Neighbor list builds = 498
Dangerous builds = 478
Total wall time: 0:00:04
