LAMMPS (17 Nov 2015)
WARNING: OMP_NUM_THREADS environment is not set. (../comm.cpp:90)
  using 1 OpenMP thread(s) per MPI task
# 3d Lennard-Jones gas
units lj
dimension 3
boundary p p p
atom_style atomic

lattice fcc 0.01
Lattice spacing in x,y,z = 7.36806 7.36806 7.36806
region simbox block 0 10 0 10 0 10
create_box 1 simbox
Created orthogonal box = (0 0 0) to (73.6806 73.6806 73.6806)
  1 by 1 by 1 MPI processor grid
create_atoms 1 box
Created 4000 atoms

mass 1 1.0
velocity all create ${temp} 87287
velocity all create 5.000000 87287

pair_style lj/cut 3.0
pair_coeff 1 1 1.0 1.0 3.0

fix 1 all nve

compute msd all msd com yes

dump 1 all custom 10 dump.lammpstrj id type x y z vx vy vz
thermo_style custom step temp c_msd[4]
thermo 100
run 5000
Neighbor list info ...
  1 neighbor list requests
  update every 1 steps, delay 10 steps, check yes
  max neighbors/atom: 2000, page size: 100000
  master list distance cutoff = 3.3
  ghost atom cutoff = 3.3
  binsize = 1.65 -> bins = 45 45 45
Memory usage per processor = 4.84291 Mbytes
Step Temp msd[4] 
       0            5 2.159838e-25 
     100    4.9960989    3.7481206 
     200    5.0243225     14.72574 
     300    5.0274505    32.611883 
     400    5.0242647    57.010946 
     500    5.0278058    87.765059 
     600    5.0328965    124.75749 
     700    5.0317377     167.6232 
     800    5.0278875    216.35647 
     900    5.0262443    270.25713 
    1000    5.0331608    329.33073 
    1100    5.0232267    393.11324 
    1200    5.0245721    460.84045 
    1300    5.0256349    532.90752 
    1400    5.0309926    609.45719 
    1500     5.029551    690.58369 
    1600    5.0319348    776.52473 
    1700    5.0281415    866.62796 
    1800    5.0323731    960.22903 
    1900    5.0321978    1056.5769 
    2000    5.0324514    1155.9316 
    2100    5.0302418    1258.4727 
    2200    5.0272384    1364.0598 
    2300    5.0304149    1472.7522 
    2400    5.0276165    1583.9235 
    2500    5.0284905    1697.5665 
    2600    5.0276937    1814.0657 
    2700    5.0290394     1931.694 
    2800    5.0292464    2050.9882 
    2900    5.0275645    2172.7414 
    3000    5.0277637    2295.9825 
    3100     5.028032    2420.8155 
    3200    5.0261536    2546.7324 
    3300    5.0339074    2673.8994 
    3400    5.0253745    2802.6787 
    3500    5.0291763    2932.7948 
    3600    5.0300007    3064.1103 
    3700     5.030264    3197.3544 
    3800    5.0279477    3333.4878 
    3900    5.0316519    3471.3963 
    4000    5.0270215    3610.8896 
    4100    5.0275371    3752.1272 
    4200    5.0223682    3894.9734 
    4300     5.030294     4039.637 
    4400    5.0254999    4186.5346 
    4500    5.0266619    4335.4703 
    4600    5.0255938    4486.0704 
    4700    5.0288266    4637.5147 
    4800    5.0319248    4790.4043 
    4900    5.0364635    4944.1557 
    5000    5.0308079    5098.7996 
Loop time of 4.59535 on 1 procs for 5000 steps with 4000 atoms

Performance: 470040.267 tau/day, 1088.056 timesteps/s
99.1% CPU use with 1 MPI tasks x 1 OpenMP threads

MPI task timing breakdown:
Section |  min time  |  avg time  |  max time  |%varavg| %total
---------------------------------------------------------------
Pair    | 0.35486    | 0.35486    | 0.35486    |   0.0 |  7.72
Neigh   | 0.43898    | 0.43898    | 0.43898    |   0.0 |  9.55
Comm    | 0.062343   | 0.062343   | 0.062343   |   0.0 |  1.36
Output  | 3.5658     | 3.5658     | 3.5658     |   0.0 | 77.60
Modify  | 0.14747    | 0.14747    | 0.14747    |   0.0 |  3.21
Other   |            | 0.02594    |            |       |  0.56

Nlocal:    4000 ave 4000 max 4000 min
Histogram: 1 0 0 0 0 0 0 0 0 0
Nghost:    1115 ave 1115 max 1115 min
Histogram: 1 0 0 0 0 0 0 0 0 0
Neighs:    3073 ave 3073 max 3073 min
Histogram: 1 0 0 0 0 0 0 0 0 0

Total # of neighbors = 3073
Ave neighs/atom = 0.76825
Neighbor list builds = 500
Dangerous builds = 500
Total wall time: 0:00:04
