LAMMPS (17 Nov 2015)
WARNING: OMP_NUM_THREADS environment is not set. (../comm.cpp:90)
  using 1 OpenMP thread(s) per MPI task
# 3d Lennard-Jones gas
units lj
dimension 3
boundary p p p
atom_style atomic

lattice fcc 0.01
Lattice spacing in x,y,z = 7.36806 7.36806 7.36806
region simbox block 0 10 0 10 0 10
create_box 1 simbox
Created orthogonal box = (0 0 0) to (73.6806 73.6806 73.6806)
  1 by 1 by 1 MPI processor grid
create_atoms 1 box
Created 4000 atoms

mass 1 1.0
velocity all create ${temp} 87287
velocity all create 3.000000 87287

pair_style lj/cut 3.0
pair_coeff 1 1 1.0 1.0 3.0

fix 1 all nve

compute msd all msd com yes

dump 1 all custom 10 dump.lammpstrj id type x y z vx vy vz
thermo_style custom step temp c_msd[4]
thermo 100
run 5000
Neighbor list info ...
  1 neighbor list requests
  update every 1 steps, delay 10 steps, check yes
  max neighbors/atom: 2000, page size: 100000
  master list distance cutoff = 3.3
  ghost atom cutoff = 3.3
  binsize = 1.65 -> bins = 45 45 45
Memory usage per processor = 4.84291 Mbytes
Step Temp msd[4] 
       0            3 2.159838e-25 
     100    3.0010594     2.249504 
     200     3.021132    8.9029226 
     300    3.0339655    19.754625 
     400    3.0303839     34.65432 
     500    3.0269004    53.342885 
     600    3.0297874    75.752978 
     700    3.0358593    101.83659 
     800    3.0365041    131.41546 
     900    3.0372763    164.22531 
    1000    3.0346171    200.18559 
    1100    3.0350146    239.21052 
    1200    3.0370935    281.02814 
    1300      3.03052    325.61986 
    1400    3.0370192    373.10528 
    1500    3.0343636    423.08043 
    1600    3.0342627    475.47809 
    1700    3.0322176    530.48532 
    1800    3.0329577    588.28687 
    1900    3.0359437    648.48087 
    2000    3.0357694     710.4629 
    2100    3.0308242    774.86189 
    2200    3.0322978    841.54225 
    2300    3.0358747    909.97896 
    2400    3.0303737    980.39391 
    2500     3.038445    1052.8425 
    2600    3.0340906    1126.5605 
    2700    3.0345098    1202.3515 
    2800    3.0353591    1279.4756 
    2900     3.034804    1358.0049 
    3000    3.0320265    1437.8542 
    3100    3.0329454    1518.7643 
    3200    3.0320683    1600.8448 
    3300    3.0376808    1684.1871 
    3400    3.0339985    1768.7846 
    3500    3.0342151    1855.2705 
    3600    3.0347043    1943.4924 
    3700    3.0360541    2033.2989 
    3800    3.0352393    2124.7344 
    3900    3.0320619    2217.6998 
    4000    3.0334022    2311.9372 
    4100    3.0336659    2407.6282 
    4200    3.0377285    2504.4631 
    4300    3.0373731    2602.1366 
    4400    3.0394895    2700.8367 
    4500    3.0348828    2799.4518 
    4600    3.0293123    2898.0504 
    4700    3.0331222    2997.5897 
    4800    3.0351893    3098.0779 
    4900    3.0378602    3199.4835 
    5000    3.0333243    3301.1438 
Loop time of 4.61568 on 1 procs for 5000 steps with 4000 atoms

Performance: 467969.859 tau/day, 1083.264 timesteps/s
98.7% CPU use with 1 MPI tasks x 1 OpenMP threads

MPI task timing breakdown:
Section |  min time  |  avg time  |  max time  |%varavg| %total
---------------------------------------------------------------
Pair    | 0.34718    | 0.34718    | 0.34718    |   0.0 |  7.52
Neigh   | 0.42765    | 0.42765    | 0.42765    |   0.0 |  9.27
Comm    | 0.062004   | 0.062004   | 0.062004   |   0.0 |  1.34
Output  | 3.6053     | 3.6053     | 3.6053     |   0.0 | 78.11
Modify  | 0.14712    | 0.14712    | 0.14712    |   0.0 |  3.19
Other   |            | 0.02639    |            |       |  0.57

Nlocal:    4000 ave 4000 max 4000 min
Histogram: 1 0 0 0 0 0 0 0 0 0
Nghost:    1109 ave 1109 max 1109 min
Histogram: 1 0 0 0 0 0 0 0 0 0
Neighs:    3037 ave 3037 max 3037 min
Histogram: 1 0 0 0 0 0 0 0 0 0

Total # of neighbors = 3037
Ave neighs/atom = 0.75925
Neighbor list builds = 500
Dangerous builds = 500
Total wall time: 0:00:04
