LAMMPS (17 Nov 2015)
WARNING: OMP_NUM_THREADS environment is not set. (../comm.cpp:90)
  using 1 OpenMP thread(s) per MPI task
# 3d Lennard-Jones gas
units lj
dimension 3
boundary p p p
atom_style atomic

lattice fcc 0.01
Lattice spacing in x,y,z = 7.36806 7.36806 7.36806
region simbox block 0 10 0 10 0 10
create_box 1 simbox
Created orthogonal box = (0 0 0) to (73.6806 73.6806 73.6806)
  1 by 1 by 1 MPI processor grid
create_atoms 1 box
Created 4000 atoms

mass 1 1.0
velocity all create 2.5 87287

pair_style lj/cut 3.0
pair_coeff 1 1 1.0 1.0 3.0

fix 1 all nve

timestep ${dt}
timestep 0.001000

dump 1 all custom 10 dump.lammpstrj id type x y z vx vy vz
thermo_style custom step ke pe etotal
thermo 100
run 5000
Neighbor list info ...
  1 neighbor list requests
  update every 1 steps, delay 10 steps, check yes
  max neighbors/atom: 2000, page size: 100000
  master list distance cutoff = 3.3
  ghost atom cutoff = 3.3
  binsize = 1.65 -> bins = 45 45 45
Memory usage per processor = 4.46791 Mbytes
Step KinEng PotEng TotEng 
       0    3.7490625            0    3.7490625 
     100    3.7490625            0    3.7490625 
     200    3.7490625            0    3.7490625 
     300    3.7490625            0    3.7490625 
     400    3.7491019 -0.00011754177    3.7489844 
     500    3.7496703 -0.0010269951    3.7486433 
     600    3.7528325 -0.0046183474    3.7482141 
     700    3.7512658 -0.0034427908     3.747823 
     800    3.7631992 -0.015729265    3.7474699 
     900    3.7747964  -0.02758333    3.7472131 
    1000    3.7857798 -0.038792421    3.7469874 
    1100    3.7834875 -0.036671185    3.7468163 
    1200    3.7894704  -0.04277562    3.7466948 
    1300     3.790529 -0.043898005     3.746631 
    1400    3.7927713  -0.04623353    3.7465377 
    1500    3.7967449  -0.05026666    3.7464782 
    1600    3.7933813 -0.046909063    3.7464722 
    1700    3.7978052 -0.051429412    3.7463758 
    1800    3.7958564 -0.049537958    3.7463184 
    1900    3.7956824 -0.049388128    3.7462942 
    2000    3.7899146 -0.043636443    3.7462781 
    2100    3.7957876 -0.049557053    3.7462306 
    2200    3.7967707 -0.050530772    3.7462399 
    2300    3.7958614 -0.049614132    3.7462473 
    2400    3.7967035 -0.050478727    3.7462248 
    2500    3.7933725 -0.047229301    3.7461432 
    2600    3.7955772 -0.049425788    3.7461514 
    2700    3.7918546   -0.0457303    3.7461243 
    2800    3.7982754 -0.052150806    3.7461246 
    2900    3.7965575 -0.050424008    3.7461335 
    3000    3.7958761 -0.049755449    3.7461206 
    3100    3.7991565 -0.053046675    3.7461098 
    3200    3.7978343 -0.051693345    3.7461409 
    3300    3.7992275 -0.053086361    3.7461411 
    3400    3.7988508 -0.052720247    3.7461305 
    3500    3.7968462 -0.050730877    3.7461154 
    3600    3.8002702 -0.054174676    3.7460955 
    3700    3.8003435 -0.054263658    3.7460798 
    3800     3.801533 -0.055498391    3.7460346 
    3900    3.8014905 -0.055473914    3.7460166 
    4000    3.8043597 -0.058383976    3.7459757 
    4100    3.8097137 -0.063707119    3.7460066 
    4200    3.8067401  -0.06073468    3.7460054 
    4300    3.8056179 -0.059623446    3.7459945 
    4400    3.8027687 -0.056735764    3.7460329 
    4500    3.8027204 -0.056680746    3.7460397 
    4600    3.8056496 -0.059587276    3.7460623 
    4700     3.809506 -0.063451052    3.7460549 
    4800    3.8039086 -0.057827085    3.7460816 
    4900    3.8079642 -0.061894134    3.7460701 
    5000    3.8055048 -0.059475357    3.7460294 
Loop time of 4.24577 on 1 procs for 5000 steps with 4000 atoms

Performance: 101748.329 tau/day, 1177.643 timesteps/s
98.7% CPU use with 1 MPI tasks x 1 OpenMP threads

MPI task timing breakdown:
Section |  min time  |  avg time  |  max time  |%varavg| %total
---------------------------------------------------------------
Pair    | 0.28024    | 0.28024    | 0.28024    |   0.0 |  6.60
Neigh   | 0.14018    | 0.14018    | 0.14018    |   0.0 |  3.30
Comm    | 0.038335   | 0.038335   | 0.038335   |   0.0 |  0.90
Output  | 3.5955     | 3.5955     | 3.5955     |   0.0 | 84.68
Modify  | 0.14489    | 0.14489    | 0.14489    |   0.0 |  3.41
Other   |            | 0.04662    |            |       |  1.10

Nlocal:    4000 ave 4000 max 4000 min
Histogram: 1 0 0 0 0 0 0 0 0 0
Nghost:    1160 ave 1160 max 1160 min
Histogram: 1 0 0 0 0 0 0 0 0 0
Neighs:    2929 ave 2929 max 2929 min
Histogram: 1 0 0 0 0 0 0 0 0 0

Total # of neighbors = 2929
Ave neighs/atom = 0.73225
Neighbor list builds = 176
Dangerous builds = 0
Total wall time: 0:00:04
