LAMMPS (17 Nov 2015)
WARNING: OMP_NUM_THREADS environment is not set. (../comm.cpp:90)
  using 1 OpenMP thread(s) per MPI task
# 3d Lennard-Jones gas
units lj
dimension 3
boundary p p p
atom_style atomic

lattice fcc 0.01
Lattice spacing in x,y,z = 7.36806 7.36806 7.36806
region simbox block 0 10 0 10 0 10
create_box 1 simbox
Created orthogonal box = (0 0 0) to (73.6806 73.6806 73.6806)
  1 by 1 by 1 MPI processor grid
create_atoms 1 box
Created 4000 atoms

mass 1 1.0
velocity all create 2.5 87287

pair_style lj/cut 3.0
pair_coeff 1 1 1.0 1.0 3.0

fix 1 all nve

timestep ${dt}
timestep 0.010000

dump 1 all custom 10 dump.lammpstrj id type x y z vx vy vz
thermo_style custom step ke pe etotal
thermo 100
run 5000
Neighbor list info ...
  1 neighbor list requests
  update every 1 steps, delay 10 steps, check yes
  max neighbors/atom: 2000, page size: 100000
  master list distance cutoff = 3.3
  ghost atom cutoff = 3.3
  binsize = 1.65 -> bins = 45 45 45
Memory usage per processor = 4.46791 Mbytes
Step KinEng PotEng TotEng 
       0    3.7490625            0    3.7490625 
     100    3.7855294  -0.03867878    3.7468506 
     200    3.7897275 -0.043586932    3.7461406 
     300    3.7955603 -0.049619515    3.7459407 
     400    3.8058687  -0.06021673     3.745652 
     500     3.805111 -0.059371709    3.7457393 
     600    3.8000668 -0.054519819     3.745547 
     700    3.8083378 -0.062804791     3.745533 
     800    3.7925859 -0.046810946    3.7457749 
     900    3.7973005 -0.051766376    3.7455341 
    1000    3.8064289 -0.061046032    3.7453829 
    1100    3.8027767 -0.057409313    3.7453674 
    1200    3.8030556 -0.057763416    3.7452922 
    1300    3.7973867  -0.05191199    3.7454747 
    1400    3.8029231 -0.057671241    3.7452519 
    1500    3.8006619 -0.055597006    3.7450649 
    1600    3.8086909 -0.063594002    3.7450969 
    1700    3.8084081 -0.063323319    3.7450847 
    1800     3.804092 -0.059182157    3.7449099 
    1900      3.81097 -0.066059253    3.7449107 
    2000    3.8108383 -0.065907439    3.7449309 
    2100    3.8059695 -0.061052338    3.7449172 
    2200    3.8039466 -0.059254805    3.7446918 
    2300    3.8073712 -0.062615136     3.744756 
    2400    3.8037902 -0.059098048    3.7446922 
    2500    3.8037998 -0.059174772     3.744625 
    2600     3.807155 -0.062719488    3.7444355 
    2700    3.8053085 -0.060686596    3.7446219 
    2800    3.7927986 -0.048123481    3.7446752 
    2900    3.8017287 -0.057135732     3.744593 
    3000    3.8028726 -0.058519088    3.7443535 
    3100    3.8040208 -0.059739103    3.7442817 
    3200     3.812126 -0.067975797    3.7441502 
    3300    3.8041769 -0.059946193    3.7442307 
    3400    3.7998309 -0.055552134    3.7442788 
    3500    3.8052281 -0.061191699    3.7440364 
    3600    3.8026402 -0.058578137    3.7440621 
    3700    3.8043397  -0.06020493    3.7441348 
    3800    3.8050793 -0.061110248     3.743969 
    3900    3.8042884  -0.06034551    3.7439429 
    4000    3.8068911 -0.063058383    3.7438327 
    4100    3.8041516 -0.060403155    3.7437485 
    4200    3.8069567 -0.063125382    3.7438314 
    4300    3.8000571 -0.056374992    3.7436821 
    4400    3.7998379 -0.056219698    3.7436182 
    4500    3.8053785   -0.0616539    3.7437246 
    4600     3.793347 -0.049695202    3.7436518 
    4700    3.8065555  -0.06298736    3.7435681 
    4800    3.8054232 -0.062013886    3.7434093 
    4900    3.7992527 -0.055704713     3.743548 
    5000    3.8053839 -0.062111801    3.7432721 
Loop time of 4.66097 on 1 procs for 5000 steps with 4000 atoms

Performance: 926845.468 tau/day, 1072.738 timesteps/s
99.3% CPU use with 1 MPI tasks x 1 OpenMP threads

MPI task timing breakdown:
Section |  min time  |  avg time  |  max time  |%varavg| %total
---------------------------------------------------------------
Pair    | 0.37597    | 0.37597    | 0.37597    |   0.0 |  8.07
Neigh   | 0.45163    | 0.45163    | 0.45163    |   0.0 |  9.69
Comm    | 0.060993   | 0.060993   | 0.060993   |   0.0 |  1.31
Output  | 3.5982     | 3.5982     | 3.5982     |   0.0 | 77.20
Modify  | 0.14641    | 0.14641    | 0.14641    |   0.0 |  3.14
Other   |            | 0.02772    |            |       |  0.59

Nlocal:    4000 ave 4000 max 4000 min
Histogram: 1 0 0 0 0 0 0 0 0 0
Nghost:    1167 ave 1167 max 1167 min
Histogram: 1 0 0 0 0 0 0 0 0 0
Neighs:    3045 ave 3045 max 3045 min
Histogram: 1 0 0 0 0 0 0 0 0 0

Total # of neighbors = 3045
Ave neighs/atom = 0.76125
Neighbor list builds = 500
Dangerous builds = 500
Total wall time: 0:00:04
