LAMMPS (17 Nov 2015)
WARNING: OMP_NUM_THREADS environment is not set. (../comm.cpp:90)
  using 1 OpenMP thread(s) per MPI task
# 3d Lennard-Jones gas
units lj
dimension 3
boundary p p p
atom_style atomic

lattice fcc ${rho}
lattice fcc 0.500000
Lattice spacing in x,y,z = 2 2 2
region simbox block 0 10 0 10 0 10
create_box 1 simbox
Created orthogonal box = (0 0 0) to (20 20 20)
  1 by 1 by 1 MPI processor grid
create_atoms 1 box
Created 4000 atoms

mass 1 1.0
velocity all create ${temp} 87287
velocity all create 10.000000 87287

pair_style lj/cut 3.0
pair_coeff 1 1 1.0 1.0 3.0

fix 1 all nve

dump 1 all custom 10 dump.lammpstrj id type x y z vx vy vz
thermo_style custom step temp density press
thermo 100
run 5000
Neighbor list info ...
  1 neighbor list requests
  update every 1 steps, delay 10 steps, check yes
  max neighbors/atom: 2000, page size: 100000
  master list distance cutoff = 3.3
  ghost atom cutoff = 3.3
  binsize = 1.65 -> bins = 13 13 13
Memory usage per processor = 4.19036 Mbytes
Step Temp Density Press 
       0           10          0.5    2.3002529 
     100    8.7678497          0.5    9.1603268 
     200    8.8872582          0.5    8.7652635 
     300    8.8427967          0.5    8.9402746 
     400    8.8581209          0.5    8.7983041 
     500    8.8777282          0.5    8.7719018 
     600    8.8461002          0.5    8.9036021 
     700    8.8168965          0.5    8.9647964 
     800    8.8130051          0.5    8.9222961 
     900    8.8387801          0.5    8.9334653 
    1000    8.9001112          0.5    8.7009364 
    1100     8.794116          0.5    9.0531379 
    1200    8.8556718          0.5    8.8572752 
    1300    8.8337061          0.5    8.9313628 
    1400    8.8645984          0.5    8.7347083 
    1500    8.8789619          0.5    8.7405881 
    1600    8.8042054          0.5    8.9792161 
    1700    8.8360211          0.5    8.9277743 
    1800    8.7743818          0.5    9.0072542 
    1900    8.8323698          0.5    8.9136826 
    2000    8.8693771          0.5    8.7232093 
    2100    8.7938598          0.5    9.0066389 
    2200    8.8106583          0.5    8.9586335 
    2300    8.8278649          0.5    8.8966536 
    2400    8.8665476          0.5    8.7527124 
    2500    8.8505822          0.5    8.7514055 
    2600     8.831789          0.5    8.8514695 
    2700    8.8262905          0.5    8.8049354 
    2800    8.7990772          0.5    8.9390018 
    2900    8.8501364          0.5    8.7899207 
    3000    8.8538303          0.5    8.7375666 
    3100    8.7704392          0.5    9.0721891 
    3200    8.8305783          0.5    8.8267986 
    3300    8.7872418          0.5    8.9454738 
    3400    8.7701981          0.5    9.0142192 
    3500    8.8222284          0.5    8.8517311 
    3600    8.8148801          0.5    8.8954752 
    3700    8.7571683          0.5    9.0167129 
    3800    8.8549983          0.5    8.6971065 
    3900     8.820403          0.5    8.8135401 
    4000    8.8359156          0.5    8.7902407 
    4100     8.803288          0.5    8.8361743 
    4200    8.8235758          0.5     8.843441 
    4300    8.7565765          0.5    9.0509464 
    4400    8.8348566          0.5    8.7682233 
    4500     8.765351          0.5    9.0489822 
    4600    8.8156716          0.5    8.8175401 
    4700    8.8041983          0.5    8.8620698 
    4800    8.7711384          0.5     9.012681 
    4900    8.8389613          0.5    8.7225908 
    5000     8.777403          0.5    8.9009237 
Loop time of 16.5227 on 1 procs for 5000 steps with 4000 atoms

Performance: 130728.931 tau/day, 302.613 timesteps/s
99.7% CPU use with 1 MPI tasks x 1 OpenMP threads

MPI task timing breakdown:
Section |  min time  |  avg time  |  max time  |%varavg| %total
---------------------------------------------------------------
Pair    | 10.146     | 10.146     | 10.146     |   0.0 | 61.41
Neigh   | 2.9766     | 2.9766     | 2.9766     |   0.0 | 18.02
Comm    | 0.19159    | 0.19159    | 0.19159    |   0.0 |  1.16
Output  | 3.0171     | 3.0171     | 3.0171     |   0.0 | 18.26
Modify  | 0.14522    | 0.14522    | 0.14522    |   0.0 |  0.88
Other   |            | 0.04582    |            |       |  0.28

Nlocal:    4000 ave 4000 max 4000 min
Histogram: 1 0 0 0 0 0 0 0 0 0
Nghost:    5435 ave 5435 max 5435 min
Histogram: 1 0 0 0 0 0 0 0 0 0
Neighs:    149160 ave 149160 max 149160 min
Histogram: 1 0 0 0 0 0 0 0 0 0

Total # of neighbors = 149160
Ave neighs/atom = 37.29
Neighbor list builds = 500
Dangerous builds = 500
Total wall time: 0:00:16
