LAMMPS (17 Nov 2015)
WARNING: OMP_NUM_THREADS environment is not set. (../comm.cpp:90)
  using 1 OpenMP thread(s) per MPI task
# 3d Lennard-Jones gas
units lj
dimension 3
boundary p p p
atom_style atomic

lattice fcc ${rho}
lattice fcc 0.500000
Lattice spacing in x,y,z = 2 2 2
region simbox block 0 10 0 10 0 10
create_box 1 simbox
Created orthogonal box = (0 0 0) to (20 20 20)
  1 by 1 by 1 MPI processor grid
create_atoms 1 box
Created 4000 atoms

mass 1 1.0
velocity all create ${temp} 87287
velocity all create 5.000000 87287

pair_style lj/cut 3.0
pair_coeff 1 1 1.0 1.0 3.0

fix 1 all nve

dump 1 all custom 10 dump.lammpstrj id type x y z vx vy vz
thermo_style custom step temp density press
thermo 100
run 5000
Neighbor list info ...
  1 neighbor list requests
  update every 1 steps, delay 10 steps, check yes
  max neighbors/atom: 2000, page size: 100000
  master list distance cutoff = 3.3
  ghost atom cutoff = 3.3
  binsize = 1.65 -> bins = 13 13 13
Memory usage per processor = 4.19036 Mbytes
Step Temp Density Press 
       0            5          0.5  -0.19912213 
     100    4.5523645          0.5    4.0932076 
     200    4.5017282          0.5     4.195252 
     300    4.4961946          0.5    4.2509483 
     400    4.4814688          0.5     4.311968 
     500    4.4854821          0.5    4.2339566 
     600     4.492501          0.5    4.2107365 
     700    4.4949707          0.5    4.2331774 
     800    4.4936491          0.5    4.2524331 
     900    4.4913633          0.5      4.26907 
    1000    4.5319895          0.5    4.0922566 
    1100    4.4945208          0.5    4.2283834 
    1200     4.489683          0.5    4.2683374 
    1300    4.4893816          0.5    4.1917464 
    1400    4.5005443          0.5    4.1974481 
    1500    4.5063381          0.5    4.1943619 
    1600    4.4757269          0.5    4.3337034 
    1700    4.4627022          0.5    4.3769229 
    1800    4.4778239          0.5    4.3174143 
    1900     4.463238          0.5    4.2980438 
    2000    4.4773486          0.5    4.2431932 
    2100    4.4930586          0.5    4.1798283 
    2200     4.460789          0.5    4.3154419 
    2300    4.4625763          0.5    4.3528818 
    2400    4.5031564          0.5    4.2177625 
    2500    4.4473292          0.5    4.4183792 
    2600    4.5280928          0.5    4.1068678 
    2700    4.4911053          0.5    4.2635677 
    2800    4.4833302          0.5    4.2469202 
    2900    4.5117674          0.5    4.2015652 
    3000    4.4899959          0.5    4.2407955 
    3100    4.4833749          0.5    4.2470247 
    3200    4.4652344          0.5    4.3793883 
    3300    4.4772652          0.5    4.2428166 
    3400    4.4821967          0.5    4.3121517 
    3500    4.5001578          0.5    4.2287862 
    3600    4.4898268          0.5    4.2491437 
    3700    4.4620255          0.5    4.3383963 
    3800    4.5286057          0.5    4.0870344 
    3900     4.489537          0.5    4.2460183 
    4000    4.4757408          0.5    4.3163598 
    4100    4.4774508          0.5    4.2529533 
    4200    4.4738369          0.5    4.3382889 
    4300    4.4469483          0.5     4.344983 
    4400    4.4889931          0.5    4.2578524 
    4500    4.5115655          0.5    4.2005698 
    4600    4.4920115          0.5    4.2470437 
    4700    4.4950232          0.5     4.204664 
    4800    4.5301295          0.5    4.1156452 
    4900    4.4876619          0.5    4.2639058 
    5000    4.4998251          0.5    4.1989232 
Loop time of 15.8377 on 1 procs for 5000 steps with 4000 atoms

Performance: 136383.311 tau/day, 315.702 timesteps/s
99.6% CPU use with 1 MPI tasks x 1 OpenMP threads

MPI task timing breakdown:
Section |  min time  |  avg time  |  max time  |%varavg| %total
---------------------------------------------------------------
Pair    | 9.5585     | 9.5585     | 9.5585     |   0.0 | 60.35
Neigh   | 2.8634     | 2.8634     | 2.8634     |   0.0 | 18.08
Comm    | 0.18247    | 0.18247    | 0.18247    |   0.0 |  1.15
Output  | 3.0513     | 3.0513     | 3.0513     |   0.0 | 19.27
Modify  | 0.14176    | 0.14176    | 0.14176    |   0.0 |  0.90
Other   |            | 0.04024    |            |       |  0.25

Nlocal:    4000 ave 4000 max 4000 min
Histogram: 1 0 0 0 0 0 0 0 0 0
Nghost:    5536 ave 5536 max 5536 min
Histogram: 1 0 0 0 0 0 0 0 0 0
Neighs:    148970 ave 148970 max 148970 min
Histogram: 1 0 0 0 0 0 0 0 0 0

Total # of neighbors = 148970
Ave neighs/atom = 37.2425
Neighbor list builds = 500
Dangerous builds = 500
Total wall time: 0:00:15
