LAMMPS (17 Nov 2015)
WARNING: OMP_NUM_THREADS environment is not set. (../comm.cpp:90)
  using 1 OpenMP thread(s) per MPI task
# 3d Lennard-Jones gas
units lj
dimension 3
boundary p p p
atom_style atomic

lattice fcc ${rho}
lattice fcc 0.100000
Lattice spacing in x,y,z = 3.41995 3.41995 3.41995
region simbox block 0 10 0 10 0 10
create_box 1 simbox
Created orthogonal box = (0 0 0) to (34.1995 34.1995 34.1995)
  1 by 1 by 1 MPI processor grid
create_atoms 1 box
Created 4000 atoms

mass 1 1.0
velocity all create ${temp} 87287
velocity all create 5.000000 87287

pair_style lj/cut 3.0
pair_coeff 1 1 1.0 1.0 3.0

fix 1 all nve

dump 1 all custom 10 dump.lammpstrj id type x y z vx vy vz
thermo_style custom step temp density press
thermo 100
run 5000
Neighbor list info ...
  1 neighbor list requests
  update every 1 steps, delay 10 steps, check yes
  max neighbors/atom: 2000, page size: 100000
  master list distance cutoff = 3.3
  ghost atom cutoff = 3.3
  binsize = 1.65 -> bins = 21 21 21
Memory usage per processor = 4.093 Mbytes
Step Temp Density Press 
       0            5          0.1     0.476115 
     100    5.2059861          0.1   0.56385964 
     200    5.2233841          0.1   0.56885282 
     300    5.2279726          0.1   0.57141002 
     400    5.2055559          0.1   0.58778794 
     500    5.2270278          0.1   0.57262677 
     600     5.243772          0.1   0.55776268 
     700    5.2368821          0.1   0.56563467 
     800    5.2348052          0.1   0.56772048 
     900    5.2240714          0.1   0.56350358 
    1000    5.2318295          0.1    0.5735086 
    1100    5.2444817          0.1   0.54679694 
    1200    5.2252541          0.1   0.57081094 
    1300    5.2449354          0.1   0.55606406 
    1400     5.233986          0.1   0.57611923 
    1500    5.2259634          0.1   0.57648275 
    1600    5.2227467          0.1   0.57423635 
    1700    5.2111836          0.1   0.58108932 
    1800    5.2467238          0.1   0.56278997 
    1900    5.2242997          0.1    0.5787384 
    2000    5.2449382          0.1   0.55553413 
    2100     5.206941          0.1   0.57807187 
    2200    5.2419164          0.1    0.5596636 
    2300    5.2315726          0.1   0.56645542 
    2400    5.2225183          0.1   0.58174306 
    2500    5.2198504          0.1   0.57886102 
    2600    5.2355666          0.1   0.56409981 
    2700    5.2117535          0.1   0.58565834 
    2800    5.2368706          0.1   0.56767334 
    2900    5.2293998          0.1   0.56941944 
    3000    5.2504647          0.1    0.5597856 
    3100    5.2288576          0.1    0.5690052 
    3200      5.23456          0.1   0.57356239 
    3300    5.2383992          0.1   0.56111453 
    3400    5.2263774          0.1   0.56654045 
    3500     5.233065          0.1   0.57055489 
    3600    5.2415474          0.1   0.55963885 
    3700    5.2213521          0.1   0.57370808 
    3800    5.2238901          0.1   0.56563247 
    3900    5.2487849          0.1   0.55408833 
    4000    5.2311822          0.1   0.56394073 
    4100    5.2498987          0.1   0.55846061 
    4200     5.223295          0.1   0.57596378 
    4300    5.2468321          0.1   0.55687223 
    4400    5.2576488          0.1   0.54541771 
    4500    5.2380802          0.1   0.56293218 
    4600    5.2310159          0.1   0.57071104 
    4700    5.2278456          0.1   0.56505818 
    4800    5.2227648          0.1   0.57180929 
    4900    5.2337617          0.1   0.56649064 
    5000     5.231828          0.1   0.56221616 
Loop time of 7.2462 on 1 procs for 5000 steps with 4000 atoms

Performance: 298087.270 tau/day, 690.017 timesteps/s
99.4% CPU use with 1 MPI tasks x 1 OpenMP threads

MPI task timing breakdown:
Section |  min time  |  avg time  |  max time  |%varavg| %total
---------------------------------------------------------------
Pair    | 2.2214     | 2.2214     | 2.2214     |   0.0 | 30.66
Neigh   | 1.4142     | 1.4142     | 1.4142     |   0.0 | 19.52
Comm    | 0.11308    | 0.11308    | 0.11308    |   0.0 |  1.56
Output  | 3.3292     | 3.3292     | 3.3292     |   0.0 | 45.94
Modify  | 0.13939    | 0.13939    | 0.13939    |   0.0 |  1.92
Other   |            | 0.02891    |            |       |  0.40

Nlocal:    4000 ave 4000 max 4000 min
Histogram: 1 0 0 0 0 0 0 0 0 0
Nghost:    2675 ave 2675 max 2675 min
Histogram: 1 0 0 0 0 0 0 0 0 0
Neighs:    29705 ave 29705 max 29705 min
Histogram: 1 0 0 0 0 0 0 0 0 0

Total # of neighbors = 29705
Ave neighs/atom = 7.42625
Neighbor list builds = 500
Dangerous builds = 500
Total wall time: 0:00:07
