LAMMPS (17 Nov 2015)
WARNING: OMP_NUM_THREADS environment is not set. (../comm.cpp:90)
  using 1 OpenMP thread(s) per MPI task
# 3d Lennard-Jones gas
units lj
dimension 3
boundary p p p
atom_style atomic

lattice fcc ${rho}
lattice fcc 1.000000
Lattice spacing in x,y,z = 1.5874 1.5874 1.5874
region simbox block 0 10 0 10 0 10
create_box 1 simbox
Created orthogonal box = (0 0 0) to (15.874 15.874 15.874)
  1 by 1 by 1 MPI processor grid
create_atoms 1 box
Created 4000 atoms

mass 1 1.0
velocity all create ${temp} 87287
velocity all create 5.000000 87287

pair_style lj/cut 3.0
pair_coeff 1 1 1.0 1.0 3.0

fix 1 all nve

dump 1 all custom 10 dump.lammpstrj id type x y z vx vy vz
thermo_style custom step temp density press
thermo 100
run 5000
Neighbor list info ...
  1 neighbor list requests
  update every 1 steps, delay 10 steps, check yes
  max neighbors/atom: 2000, page size: 100000
  master list distance cutoff = 3.3
  ghost atom cutoff = 3.3
  binsize = 1.65 -> bins = 10 10 10
Memory usage per processor = 4.27719 Mbytes
Step Temp Density Press 
       0            5            1   0.87144868 
     100    2.5052948            1    18.259347 
     200    2.4314542            1    18.789082 
     300    2.3997579            1    18.988871 
     400    2.4690729            1    18.555842 
     500    2.4520114            1    18.642841 
     600    2.4653054            1     18.59695 
     700    2.4354772            1    18.779341 
     800    2.4517186            1    18.684734 
     900    2.4551229            1    18.649807 
    1000    2.4301264            1    18.805047 
    1100    2.4201561            1    18.853787 
    1200    2.4518397            1    18.680567 
    1300    2.4698077            1     18.51501 
    1400    2.4380572            1     18.76462 
    1500    2.4413285            1    18.742573 
    1600    2.4209041            1    18.858172 
    1700    2.4251791            1    18.824588 
    1800    2.4092633            1    18.917898 
    1900    2.4310448            1    18.848335 
    2000    2.4297512            1    18.807278 
    2100    2.4607945            1    18.621136 
    2200    2.4335588            1    18.818941 
    2300    2.4624696            1    18.584702 
    2400    2.4050247            1     18.96041 
    2500    2.4553771            1    18.634944 
    2600    2.4172989            1    18.873608 
    2700    2.4174911            1    18.897757 
    2800      2.43377            1    18.807328 
    2900    2.4296139            1     18.79812 
    3000    2.4448227            1    18.720477 
    3100    2.4570257            1    18.655171 
    3200    2.4651812            1    18.570475 
    3300    2.4205958            1    18.893816 
    3400    2.4426558            1    18.715951 
    3500    2.4391578            1    18.761744 
    3600    2.4515671            1    18.678546 
    3700    2.4124729            1    18.888579 
    3800    2.4326953            1    18.784994 
    3900    2.4449253            1    18.770445 
    4000    2.4332138            1    18.785195 
    4100    2.4567465            1    18.664014 
    4200    2.4557071            1    18.629634 
    4300    2.4656021            1    18.587483 
    4400    2.4425693            1    18.761548 
    4500    2.4332638            1    18.822041 
    4600    2.4488283            1    18.697381 
    4700    2.4569487            1    18.640084 
    4800    2.4601181            1    18.621545 
    4900    2.4217435            1     18.88293 
    5000    2.4302162            1    18.829196 
Loop time of 24.959 on 1 procs for 5000 steps with 4000 atoms

Performance: 86541.789 tau/day, 200.328 timesteps/s
99.8% CPU use with 1 MPI tasks x 1 OpenMP threads

MPI task timing breakdown:
Section |  min time  |  avg time  |  max time  |%varavg| %total
---------------------------------------------------------------
Pair    | 17.264     | 17.264     | 17.264     |   0.0 | 69.17
Neigh   | 4.4454     | 4.4454     | 4.4454     |   0.0 | 17.81
Comm    | 0.21558    | 0.21558    | 0.21558    |   0.0 |  0.86
Output  | 2.8389     | 2.8389     | 2.8389     |   0.0 | 11.37
Modify  | 0.14593    | 0.14593    | 0.14593    |   0.0 |  0.58
Other   |            | 0.04909    |            |       |  0.20

Nlocal:    4000 ave 4000 max 4000 min
Histogram: 1 0 0 0 0 0 0 0 0 0
Nghost:    7357 ave 7357 max 7357 min
Histogram: 1 0 0 0 0 0 0 0 0 0
Neighs:    299049 ave 299049 max 299049 min
Histogram: 1 0 0 0 0 0 0 0 0 0

Total # of neighbors = 299049
Ave neighs/atom = 74.7622
Neighbor list builds = 500
Dangerous builds = 500
Total wall time: 0:00:25
