LAMMPS (17 Nov 2015)
WARNING: OMP_NUM_THREADS environment is not set. (../comm.cpp:90)
  using 1 OpenMP thread(s) per MPI task
# 3d Lennard-Jones gas
units lj
dimension 3
boundary p p p
atom_style atomic

lattice fcc ${rho}
lattice fcc 0.010000
Lattice spacing in x,y,z = 7.36806 7.36806 7.36806
region simbox block 0 10 0 10 0 10
create_box 1 simbox
Created orthogonal box = (0 0 0) to (73.6806 73.6806 73.6806)
  1 by 1 by 1 MPI processor grid
create_atoms 1 box
Created 4000 atoms

mass 1 1.0
velocity all create ${temp} 87287
velocity all create 2.000000 87287

pair_style lj/cut 3.0
pair_coeff 1 1 1.0 1.0 3.0

fix 1 all nve

dump 1 all custom 10 dump.lammpstrj id type x y z vx vy vz
thermo_style custom step temp density press
thermo 100
run 5000
Neighbor list info ...
  1 neighbor list requests
  update every 1 steps, delay 10 steps, check yes
  max neighbors/atom: 2000, page size: 100000
  master list distance cutoff = 3.3
  ghost atom cutoff = 3.3
  binsize = 1.65 -> bins = 45 45 45
Memory usage per processor = 4.46791 Mbytes
Step Temp Density Press 
       0            2         0.01     0.019995 
     100    2.0001141         0.01  0.019988553 
     200    2.0179231         0.01   0.02049067 
     300    2.0261143         0.01  0.020370671 
     400    2.0309736         0.01  0.020384666 
     500    2.0310206         0.01  0.020389252 
     600    2.0299788         0.01  0.020333278 
     700    2.0330485         0.01  0.020152094 
     800    2.0326857         0.01  0.020307895 
     900    2.0404821         0.01  0.020163109 
    1000    2.0390023         0.01  0.020215628 
    1100    2.0354252         0.01  0.020396654 
    1200    2.0357426         0.01  0.020381162 
    1300    2.0377116         0.01  0.019956721 
    1400    2.0375232         0.01  0.020096582 
    1500    2.0344473         0.01  0.020226131 
    1600    2.0394874         0.01  0.020316037 
    1700    2.0416052         0.01  0.020180157 
    1800    2.0382153         0.01  0.020197641 
    1900    2.0355429         0.01  0.020284928 
    2000    2.0387515         0.01  0.020154594 
    2100    2.0398093         0.01  0.020299238 
    2200    2.0384665         0.01  0.020286767 
    2300    2.0381625         0.01  0.020364448 
    2400    2.0391357         0.01  0.020475449 
    2500    2.0399568         0.01  0.020224017 
    2600     2.038472         0.01  0.020050838 
    2700    2.0397181         0.01  0.020341473 
    2800    2.0410208         0.01  0.020141718 
    2900    2.0377147         0.01  0.020405774 
    3000    2.0423244         0.01  0.020232292 
    3100    2.0396088         0.01  0.020129387 
    3200    2.0392983         0.01  0.020168954 
    3300    2.0416247         0.01  0.020242397 
    3400    2.0424853         0.01  0.020201462 
    3500    2.0409145         0.01  0.020083179 
    3600    2.0405853         0.01  0.020065941 
    3700    2.0381509         0.01  0.020405447 
    3800    2.0401514         0.01  0.020330761 
    3900     2.039647         0.01  0.020116346 
    4000    2.0398808         0.01  0.020138391 
    4100    2.0435839         0.01  0.020075647 
    4200     2.037967         0.01  0.020160811 
    4300    2.0394066         0.01  0.020308763 
    4400    2.0391483         0.01  0.020195063 
    4500    2.0378112         0.01  0.020188751 
    4600    2.0385763         0.01  0.020302662 
    4700    2.0401996         0.01  0.019992077 
    4800    2.0389607         0.01  0.020592892 
    4900    2.0401102         0.01  0.020066448 
    5000    2.0363004         0.01  0.020295747 
Loop time of 4.79157 on 1 procs for 5000 steps with 4000 atoms

Performance: 450791.416 tau/day, 1043.499 timesteps/s
97.7% CPU use with 1 MPI tasks x 1 OpenMP threads

MPI task timing breakdown:
Section |  min time  |  avg time  |  max time  |%varavg| %total
---------------------------------------------------------------
Pair    | 0.34799    | 0.34799    | 0.34799    |   0.0 |  7.26
Neigh   | 0.4373     | 0.4373     | 0.4373     |   0.0 |  9.13
Comm    | 0.061867   | 0.061867   | 0.061867   |   0.0 |  1.29
Output  | 3.7644     | 3.7644     | 3.7644     |   0.0 | 78.56
Modify  | 0.15225    | 0.15225    | 0.15225    |   0.0 |  3.18
Other   |            | 0.02778    |            |       |  0.58

Nlocal:    4000 ave 4000 max 4000 min
Histogram: 1 0 0 0 0 0 0 0 0 0
Nghost:    1190 ave 1190 max 1190 min
Histogram: 1 0 0 0 0 0 0 0 0 0
Neighs:    2949 ave 2949 max 2949 min
Histogram: 1 0 0 0 0 0 0 0 0 0

Total # of neighbors = 2949
Ave neighs/atom = 0.73725
Neighbor list builds = 500
Dangerous builds = 500
Total wall time: 0:00:04
