LAMMPS (17 Nov 2015)
WARNING: OMP_NUM_THREADS environment is not set. (../comm.cpp:90)
  using 1 OpenMP thread(s) per MPI task
# 3d Lennard-Jones gas
units lj
dimension 3
boundary p p p
atom_style atomic

lattice fcc ${rho}
lattice fcc 0.010000
Lattice spacing in x,y,z = 7.36806 7.36806 7.36806
region simbox block 0 10 0 10 0 10
create_box 1 simbox
Created orthogonal box = (0 0 0) to (73.6806 73.6806 73.6806)
  1 by 1 by 1 MPI processor grid
create_atoms 1 box
Created 4000 atoms

mass 1 1.0
velocity all create ${temp} 87287
velocity all create 3.000000 87287

pair_style lj/cut 3.0
pair_coeff 1 1 1.0 1.0 3.0

fix 1 all nve

dump 1 all custom 10 dump.lammpstrj id type x y z vx vy vz
thermo_style custom step temp density press
thermo 100
run 5000
Neighbor list info ...
  1 neighbor list requests
  update every 1 steps, delay 10 steps, check yes
  max neighbors/atom: 2000, page size: 100000
  master list distance cutoff = 3.3
  ghost atom cutoff = 3.3
  binsize = 1.65 -> bins = 45 45 45
Memory usage per processor = 4.46791 Mbytes
Step Temp Density Press 
       0            3         0.01    0.0299925 
     100    3.0010594         0.01  0.029959749 
     200     3.021132         0.01  0.030868166 
     300    3.0339655         0.01  0.030182875 
     400    3.0303839         0.01  0.030333881 
     500    3.0269004         0.01  0.030536533 
     600    3.0297874         0.01   0.03032051 
     700    3.0358593         0.01  0.030209327 
     800    3.0365041         0.01  0.030375811 
     900    3.0372763         0.01  0.030535759 
    1000    3.0346171         0.01  0.030357986 
    1100    3.0350146         0.01  0.030350531 
    1200    3.0370935         0.01   0.03050217 
    1300      3.03052         0.01  0.030691436 
    1400    3.0370192         0.01  0.030458096 
    1500    3.0343636         0.01   0.03027282 
    1600    3.0342627         0.01  0.030235794 
    1700    3.0322176         0.01  0.030445862 
    1800    3.0329577         0.01  0.030379237 
    1900    3.0359437         0.01   0.03027789 
    2000    3.0357694         0.01  0.030099912 
    2100    3.0308242         0.01  0.030521541 
    2200    3.0322978         0.01  0.030348958 
    2300    3.0358747         0.01   0.03005693 
    2400    3.0303737         0.01  0.030530653 
    2500     3.038445         0.01  0.030430003 
    2600    3.0340906         0.01  0.030067873 
    2700    3.0345098         0.01   0.03035327 
    2800    3.0353591         0.01  0.030083995 
    2900     3.034804         0.01  0.030159821 
    3000    3.0320265         0.01  0.030607553 
    3100    3.0329454         0.01  0.030597527 
    3200    3.0320683         0.01   0.03053418 
    3300    3.0376808         0.01  0.030200251 
    3400    3.0339985         0.01  0.030261026 
    3500    3.0342151         0.01  0.030189218 
    3600    3.0347043         0.01  0.030299536 
    3700    3.0360541         0.01  0.030142543 
    3800    3.0352393         0.01  0.030360386 
    3900    3.0320619         0.01  0.030479077 
    4000    3.0334022         0.01  0.030247819 
    4100    3.0336659         0.01  0.030321063 
    4200    3.0377285         0.01  0.030172227 
    4300    3.0373731         0.01  0.030353045 
    4400    3.0394895         0.01  0.030266097 
    4500    3.0348828         0.01   0.03020423 
    4600    3.0293123         0.01  0.030603601 
    4700    3.0331222         0.01   0.03049659 
    4800    3.0351893         0.01   0.03036567 
    4900    3.0378602         0.01  0.030371058 
    5000    3.0333243         0.01  0.030476673 
Loop time of 4.64643 on 1 procs for 5000 steps with 4000 atoms

Performance: 464873.531 tau/day, 1076.096 timesteps/s
98.4% CPU use with 1 MPI tasks x 1 OpenMP threads

MPI task timing breakdown:
Section |  min time  |  avg time  |  max time  |%varavg| %total
---------------------------------------------------------------
Pair    | 0.34931    | 0.34931    | 0.34931    |   0.0 |  7.52
Neigh   | 0.42726    | 0.42726    | 0.42726    |   0.0 |  9.20
Comm    | 0.059981   | 0.059981   | 0.059981   |   0.0 |  1.29
Output  | 3.6331     | 3.6331     | 3.6331     |   0.0 | 78.19
Modify  | 0.15013    | 0.15013    | 0.15013    |   0.0 |  3.23
Other   |            | 0.02668    |            |       |  0.57

Nlocal:    4000 ave 4000 max 4000 min
Histogram: 1 0 0 0 0 0 0 0 0 0
Nghost:    1109 ave 1109 max 1109 min
Histogram: 1 0 0 0 0 0 0 0 0 0
Neighs:    3037 ave 3037 max 3037 min
Histogram: 1 0 0 0 0 0 0 0 0 0

Total # of neighbors = 3037
Ave neighs/atom = 0.75925
Neighbor list builds = 500
Dangerous builds = 500
Total wall time: 0:00:04
