LAMMPS (17 Nov 2015)
WARNING: OMP_NUM_THREADS environment is not set. (../comm.cpp:90)
  using 1 OpenMP thread(s) per MPI task
# 3d Lennard-Jones gas
units lj
dimension 3
boundary p p p
atom_style atomic

lattice fcc ${rho}
lattice fcc 0.100000
Lattice spacing in x,y,z = 3.41995 3.41995 3.41995
region simbox block 0 10 0 10 0 10
create_box 1 simbox
Created orthogonal box = (0 0 0) to (34.1995 34.1995 34.1995)
  1 by 1 by 1 MPI processor grid
create_atoms 1 box
Created 4000 atoms

mass 1 1.0
velocity all create ${temp} 87287
velocity all create 10.000000 87287

pair_style lj/cut 3.0
pair_coeff 1 1 1.0 1.0 3.0

fix 1 all nve

dump 1 all custom 10 dump.lammpstrj id type x y z vx vy vz
thermo_style custom step temp density press
thermo 100
run 5000
Neighbor list info ...
  1 neighbor list requests
  update every 1 steps, delay 10 steps, check yes
  max neighbors/atom: 2000, page size: 100000
  master list distance cutoff = 3.3
  ghost atom cutoff = 3.3
  binsize = 1.65 -> bins = 21 21 21
Memory usage per processor = 4.093 Mbytes
Step Temp Density Press 
       0           10          0.1      0.97599 
     100    10.136001          0.1    1.1215619 
     200    10.119826          0.1    1.1376133 
     300    10.129058          0.1    1.1312602 
     400    10.122026          0.1    1.1419957 
     500    10.117622          0.1    1.1371703 
     600    10.167304          0.1    1.1063364 
     700    10.150006          0.1     1.124521 
     800    10.149415          0.1    1.1226159 
     900    10.128114          0.1    1.1304427 
    1000    10.091596          0.1    1.1549224 
    1100    10.130093          0.1    1.1279301 
    1200    10.104213          0.1       1.1431 
    1300    10.130178          0.1     1.127612 
    1400    10.125096          0.1    1.1416183 
    1500    10.145994          0.1    1.1228843 
    1600    10.115827          0.1    1.1405666 
    1700    10.086908          0.1    1.1573972 
    1800    10.123577          0.1    1.1301155 
    1900    10.084718          0.1    1.1523342 
    2000    10.135492          0.1     1.119622 
    2100     10.12514          0.1    1.1295397 
    2200    10.124338          0.1    1.1290931 
    2300    10.098283          0.1    1.1467115 
    2400    10.095448          0.1    1.1492016 
    2500    10.133414          0.1    1.1250795 
    2600    10.149726          0.1    1.1135983 
    2700    10.149337          0.1    1.1166636 
    2800    10.132405          0.1    1.1267821 
    2900    10.134202          0.1    1.1253581 
    3000    10.112542          0.1    1.1301946 
    3100    10.111857          0.1    1.1346575 
    3200     10.13874          0.1    1.1231656 
    3300    10.131133          0.1    1.1312828 
    3400    10.115164          0.1    1.1342017 
    3500    10.114885          0.1    1.1370199 
    3600    10.148293          0.1    1.1166968 
    3700    10.120379          0.1    1.1262434 
    3800    10.148561          0.1     1.112452 
    3900    10.124164          0.1    1.1296451 
    4000    10.114311          0.1    1.1269453 
    4100    10.130307          0.1    1.1218795 
    4200    10.134021          0.1    1.1207456 
    4300     10.11499          0.1    1.1335646 
    4400    10.130101          0.1    1.1266585 
    4500    10.131403          0.1    1.1137955 
    4600    10.098392          0.1    1.1369815 
    4700    10.129075          0.1    1.1215364 
    4800     10.11488          0.1    1.1348311 
    4900    10.128897          0.1    1.1225673 
    5000    10.139504          0.1    1.1093536 
Loop time of 7.30839 on 1 procs for 5000 steps with 4000 atoms

Performance: 295550.734 tau/day, 684.145 timesteps/s
99.4% CPU use with 1 MPI tasks x 1 OpenMP threads

MPI task timing breakdown:
Section |  min time  |  avg time  |  max time  |%varavg| %total
---------------------------------------------------------------
Pair    | 2.307      | 2.307      | 2.307      |   0.0 | 31.57
Neigh   | 1.4255     | 1.4255     | 1.4255     |   0.0 | 19.51
Comm    | 0.11151    | 0.11151    | 0.11151    |   0.0 |  1.53
Output  | 3.2969     | 3.2969     | 3.2969     |   0.0 | 45.11
Modify  | 0.13874    | 0.13874    | 0.13874    |   0.0 |  1.90
Other   |            | 0.02866    |            |       |  0.39

Nlocal:    4000 ave 4000 max 4000 min
Histogram: 1 0 0 0 0 0 0 0 0 0
Nghost:    2727 ave 2727 max 2727 min
Histogram: 1 0 0 0 0 0 0 0 0 0
Neighs:    29339 ave 29339 max 29339 min
Histogram: 1 0 0 0 0 0 0 0 0 0

Total # of neighbors = 29339
Ave neighs/atom = 7.33475
Neighbor list builds = 500
Dangerous builds = 500
Total wall time: 0:00:07
