LAMMPS (17 Nov 2015)
WARNING: OMP_NUM_THREADS environment is not set. (../comm.cpp:90)
  using 1 OpenMP thread(s) per MPI task
# 3d Lennard-Jones gas
units lj
dimension 3
boundary p p p
atom_style atomic

lattice fcc ${rho}
lattice fcc 0.020000
Lattice spacing in x,y,z = 5.84804 5.84804 5.84804
region simbox block 0 10 0 10 0 10
create_box 1 simbox
Created orthogonal box = (0 0 0) to (58.4804 58.4804 58.4804)
  1 by 1 by 1 MPI processor grid
create_atoms 1 box
Created 4000 atoms

mass 1 1.0
velocity all create ${temp} 87287
velocity all create 3.000000 87287

pair_style lj/cut 3.0
pair_coeff 1 1 1.0 1.0 3.0

fix 1 all nve

dump 1 all custom 10 dump.lammpstrj id type x y z vx vy vz
thermo_style custom step temp density press
thermo 100
run 5000
Neighbor list info ...
  1 neighbor list requests
  update every 1 steps, delay 10 steps, check yes
  max neighbors/atom: 2000, page size: 100000
  master list distance cutoff = 3.3
  ghost atom cutoff = 3.3
  binsize = 1.65 -> bins = 36 36 36
Memory usage per processor = 4.28886 Mbytes
Step Temp Density Press 
       0            3         0.02     0.059985 
     100    3.0093354         0.02  0.061569678 
     200     3.053506         0.02  0.061841815 
     300    3.0602439         0.02  0.060956786 
     400    3.0644049         0.02  0.061989328 
     500    3.0582488         0.02  0.061875471 
     600    3.0689822         0.02   0.06168799 
     700    3.0657131         0.02   0.06237056 
     800    3.0603891         0.02  0.062735918 
     900    3.0669262         0.02  0.061423508 
    1000    3.0677986         0.02  0.061560153 
    1100    3.0674268         0.02  0.061252294 
    1200    3.0688339         0.02  0.061015926 
    1300    3.0675227         0.02  0.061398212 
    1400    3.0697003         0.02  0.061458037 
    1500    3.0656778         0.02  0.061815948 
    1600    3.0686223         0.02  0.061677431 
    1700    3.0713139         0.02  0.061424735 
    1800    3.0653676         0.02  0.061656598 
    1900    3.0710173         0.02  0.061461356 
    2000    3.0698136         0.02  0.061418144 
    2100    3.0644585         0.02  0.062949664 
    2200    3.0747134         0.02   0.06081063 
    2300    3.0682493         0.02  0.061148265 
    2400       3.0727         0.02  0.061497032 
    2500    3.0685573         0.02  0.061336095 
    2600    3.0741737         0.02  0.061343892 
    2700    3.0660596         0.02  0.061294347 
    2800    3.0703985         0.02  0.061868727 
    2900    3.0709982         0.02  0.061518054 
    3000    3.0671393         0.02   0.06192639 
    3100    3.0702586         0.02  0.061303026 
    3200    3.0721369         0.02  0.061670343 
    3300    3.0580856         0.02  0.062271571 
    3400    3.0662658         0.02  0.061364355 
    3500    3.0718516         0.02  0.061559328 
    3600    3.0721057         0.02  0.061386616 
    3700    3.0661481         0.02  0.062029001 
    3800     3.068581         0.02   0.06146046 
    3900    3.0730326         0.02  0.061612405 
    4000    3.0665351         0.02  0.061800661 
    4100     3.069249         0.02  0.062301895 
    4200    3.0699178         0.02  0.061659712 
    4300    3.0746451         0.02  0.061376447 
    4400    3.0730274         0.02  0.061120048 
    4500    3.0738395         0.02  0.061370743 
    4600    3.0730925         0.02  0.061132925 
    4700     3.073233         0.02   0.06114845 
    4800    3.0761205         0.02  0.060981445 
    4900    3.0758856         0.02  0.061332309 
    5000    3.0706636         0.02  0.061763739 
Loop time of 4.91533 on 1 procs for 5000 steps with 4000 atoms

Performance: 439441.871 tau/day, 1017.227 timesteps/s
98.7% CPU use with 1 MPI tasks x 1 OpenMP threads

MPI task timing breakdown:
Section |  min time  |  avg time  |  max time  |%varavg| %total
---------------------------------------------------------------
Pair    | 0.56097    | 0.56097    | 0.56097    |   0.0 | 11.41
Neigh   | 0.52516    | 0.52516    | 0.52516    |   0.0 | 10.68
Comm    | 0.072885   | 0.072885   | 0.072885   |   0.0 |  1.48
Output  | 3.5793     | 3.5793     | 3.5793     |   0.0 | 72.82
Modify  | 0.14924    | 0.14924    | 0.14924    |   0.0 |  3.04
Other   |            | 0.02781    |            |       |  0.57

Nlocal:    4000 ave 4000 max 4000 min
Histogram: 1 0 0 0 0 0 0 0 0 0
Nghost:    1510 ave 1510 max 1510 min
Histogram: 1 0 0 0 0 0 0 0 0 0
Neighs:    5969 ave 5969 max 5969 min
Histogram: 1 0 0 0 0 0 0 0 0 0

Total # of neighbors = 5969
Ave neighs/atom = 1.49225
Neighbor list builds = 500
Dangerous builds = 500
Total wall time: 0:00:05
