LAMMPS (17 Nov 2015)
WARNING: OMP_NUM_THREADS environment is not set. (../comm.cpp:90)
  using 1 OpenMP thread(s) per MPI task
# 3d Lennard-Jones gas
units lj
dimension 3
boundary p p p
atom_style atomic

lattice fcc ${rho}
lattice fcc 0.050000
Lattice spacing in x,y,z = 4.30887 4.30887 4.30887
region simbox block 0 10 0 10 0 10
create_box 1 simbox
Created orthogonal box = (0 0 0) to (43.0887 43.0887 43.0887)
  1 by 1 by 1 MPI processor grid
create_atoms 1 box
Created 4000 atoms

mass 1 1.0
velocity all create ${temp} 87287
velocity all create 2.000000 87287

pair_style lj/cut 3.0
pair_coeff 1 1 1.0 1.0 3.0

fix 1 all nve

dump 1 all custom 10 dump.lammpstrj id type x y z vx vy vz
thermo_style custom step temp density press
thermo 100
run 5000
Neighbor list info ...
  1 neighbor list requests
  update every 1 steps, delay 10 steps, check yes
  max neighbors/atom: 2000, page size: 100000
  master list distance cutoff = 3.3
  ghost atom cutoff = 3.3
  binsize = 1.65 -> bins = 27 27 27
Memory usage per processor = 4.15095 Mbytes
Step Temp Density Press 
       0            2         0.05     0.099975 
     100    2.0787529         0.05   0.11311124 
     200    2.1526314         0.05   0.10691253 
     300    2.1680663         0.05   0.10611177 
     400    2.1734759         0.05   0.10973293 
     500    2.1818819         0.05   0.11002636 
     600    2.1908803         0.05    0.1050216 
     700     2.192906         0.05   0.10562912 
     800    2.1778867         0.05   0.10652411 
     900    2.1904386         0.05   0.10382853 
    1000    2.1909318         0.05   0.10534922 
    1100    2.1877041         0.05   0.10697108 
    1200    2.1947588         0.05   0.10739706 
    1300     2.193228         0.05   0.10870665 
    1400    2.1954455         0.05    0.1057771 
    1500    2.1969553         0.05   0.10807483 
    1600    2.1926909         0.05   0.10788436 
    1700    2.1959028         0.05   0.10664681 
    1800    2.2000623         0.05   0.10679196 
    1900    2.1960406         0.05   0.10525672 
    2000    2.1982394         0.05   0.10651379 
    2100    2.2014862         0.05   0.10509396 
    2200    2.1919251         0.05   0.10831671 
    2300    2.2009689         0.05    0.1070102 
    2400    2.1983117         0.05   0.10581904 
    2500    2.1925889         0.05    0.1083836 
    2600    2.1988138         0.05    0.1051217 
    2700    2.1943605         0.05    0.1050627 
    2800    2.1932892         0.05   0.10786799 
    2900    2.1889921         0.05   0.10744597 
    3000    2.1973547         0.05   0.10782465 
    3100    2.1936862         0.05   0.10613703 
    3200    2.1989771         0.05   0.10404538 
    3300    2.1974892         0.05   0.10600506 
    3400    2.1995556         0.05   0.10613426 
    3500    2.1912822         0.05   0.10592273 
    3600    2.1923184         0.05   0.10726384 
    3700    2.1948469         0.05     0.106401 
    3800    2.2004605         0.05   0.10687058 
    3900    2.2011475         0.05   0.10925271 
    4000    2.1986398         0.05   0.10674115 
    4100    2.1931199         0.05   0.11008523 
    4200    2.1929071         0.05    0.1057569 
    4300    2.1998732         0.05   0.10686579 
    4400    2.1893379         0.05   0.10638595 
    4500    2.1913492         0.05   0.10776362 
    4600    2.2000748         0.05   0.10430489 
    4700    2.1975035         0.05   0.10469714 
    4800    2.1993682         0.05   0.10752346 
    4900    2.1922071         0.05   0.10662261 
    5000    2.1948491         0.05   0.10531435 
Loop time of 5.78538 on 1 procs for 5000 steps with 4000 atoms

Performance: 373354.589 tau/day, 864.247 timesteps/s
99.2% CPU use with 1 MPI tasks x 1 OpenMP threads

MPI task timing breakdown:
Section |  min time  |  avg time  |  max time  |%varavg| %total
---------------------------------------------------------------
Pair    | 1.1491     | 1.1491     | 1.1491     |   0.0 | 19.86
Neigh   | 0.85191    | 0.85191    | 0.85191    |   0.0 | 14.73
Comm    | 0.092565   | 0.092565   | 0.092565   |   0.0 |  1.60
Output  | 3.5147     | 3.5147     | 3.5147     |   0.0 | 60.75
Modify  | 0.14751    | 0.14751    | 0.14751    |   0.0 |  2.55
Other   |            | 0.02959    |            |       |  0.51

Nlocal:    4000 ave 4000 max 4000 min
Histogram: 1 0 0 0 0 0 0 0 0 0
Nghost:    2053 ave 2053 max 2053 min
Histogram: 1 0 0 0 0 0 0 0 0 0
Neighs:    15117 ave 15117 max 15117 min
Histogram: 1 0 0 0 0 0 0 0 0 0

Total # of neighbors = 15117
Ave neighs/atom = 3.77925
Neighbor list builds = 500
Dangerous builds = 500
Total wall time: 0:00:06
