LAMMPS (17 Nov 2015)
WARNING: OMP_NUM_THREADS environment is not set. (../comm.cpp:90)
  using 1 OpenMP thread(s) per MPI task
# 3d Lennard-Jones gas
units lj
dimension 3
boundary p p p
atom_style atomic

lattice fcc ${rho}
lattice fcc 1.000000
Lattice spacing in x,y,z = 1.5874 1.5874 1.5874
region simbox block 0 10 0 10 0 10
create_box 1 simbox
Created orthogonal box = (0 0 0) to (15.874 15.874 15.874)
  1 by 1 by 1 MPI processor grid
create_atoms 1 box
Created 4000 atoms

mass 1 1.0
velocity all create ${temp} 87287
velocity all create 10.000000 87287

pair_style lj/cut 3.0
pair_coeff 1 1 1.0 1.0 3.0

fix 1 all nve

dump 1 all custom 10 dump.lammpstrj id type x y z vx vy vz
thermo_style custom step temp density press
thermo 100
run 5000
Neighbor list info ...
  1 neighbor list requests
  update every 1 steps, delay 10 steps, check yes
  max neighbors/atom: 2000, page size: 100000
  master list distance cutoff = 3.3
  ghost atom cutoff = 3.3
  binsize = 1.65 -> bins = 10 10 10
Memory usage per processor = 4.27719 Mbytes
Step Temp Density Press 
       0           10            1    5.8701987 
     100    5.5633107            1    35.499825 
     200    5.5984356            1    35.208342 
     300    5.5539238            1      35.5541 
     400    5.5971239            1    35.330157 
     500    5.5626215            1    35.468037 
     600     5.571788            1    35.421428 
     700     5.565529            1     35.40463 
     800     5.502527            1    35.862626 
     900    5.5075916            1    35.770451 
    1000    5.5043477            1    35.816993 
    1100    5.5104003            1    35.835549 
    1200    5.5447226            1    35.542252 
    1300     5.522031            1    35.717607 
    1400    5.5168853            1    35.769149 
    1500    5.4738592            1    35.980662 
    1600    5.5939073            1    35.239582 
    1700    5.4714373            1    36.001129 
    1800    5.5704273            1    35.396764 
    1900    5.6009428            1    35.255874 
    2000    5.5221984            1    35.685761 
    2100    5.6187295            1    35.080598 
    2200    5.4869805            1      35.8886 
    2300    5.5918222            1    35.277768 
    2400    5.5122805            1    35.695544 
    2500    5.5105001            1    35.709318 
    2600    5.5573868            1     35.42644 
    2700    5.5354262            1    35.571807 
    2800    5.5645852            1    35.369862 
    2900    5.5077128            1    35.688892 
    3000    5.4747134            1    35.933226 
    3100    5.4998388            1     35.77431 
    3200    5.5454566            1    35.469993 
    3300    5.5050238            1     35.72908 
    3400    5.5232939            1    35.674784 
    3500    5.6111686            1    35.125033 
    3600     5.492503            1    35.801879 
    3700    5.5117517            1    35.765409 
    3800    5.5618675            1    35.388658 
    3900     5.542511            1    35.512308 
    4000    5.5833494            1     35.27494 
    4100    5.4081132            1    36.404626 
    4200    5.5434066            1    35.494611 
    4300    5.5418817            1    35.502723 
    4400    5.5489326            1    35.478416 
    4500     5.595709            1    35.206446 
    4600    5.5283209            1    35.580368 
    4700    5.5140671            1    35.703027 
    4800     5.495562            1    35.807463 
    4900    5.5435955            1    35.537227 
    5000    5.5472314            1    35.479942 
Loop time of 25.8395 on 1 procs for 5000 steps with 4000 atoms

Performance: 83593.095 tau/day, 193.503 timesteps/s
99.7% CPU use with 1 MPI tasks x 1 OpenMP threads

MPI task timing breakdown:
Section |  min time  |  avg time  |  max time  |%varavg| %total
---------------------------------------------------------------
Pair    | 17.973     | 17.973     | 17.973     |   0.0 | 69.56
Neigh   | 4.6622     | 4.6622     | 4.6622     |   0.0 | 18.04
Comm    | 0.22549    | 0.22549    | 0.22549    |   0.0 |  0.87
Output  | 2.7843     | 2.7843     | 2.7843     |   0.0 | 10.78
Modify  | 0.14386    | 0.14386    | 0.14386    |   0.0 |  0.56
Other   |            | 0.05084    |            |       |  0.20

Nlocal:    4000 ave 4000 max 4000 min
Histogram: 1 0 0 0 0 0 0 0 0 0
Nghost:    7396 ave 7396 max 7396 min
Histogram: 1 0 0 0 0 0 0 0 0 0
Neighs:    298971 ave 298971 max 298971 min
Histogram: 1 0 0 0 0 0 0 0 0 0

Total # of neighbors = 298971
Ave neighs/atom = 74.7428
Neighbor list builds = 500
Dangerous builds = 500
Total wall time: 0:00:26
