LAMMPS (17 Nov 2015)
WARNING: OMP_NUM_THREADS environment is not set. (../comm.cpp:90)
  using 1 OpenMP thread(s) per MPI task
# 3d Lennard-Jones gas
units lj
dimension 3
boundary p p p
atom_style atomic

lattice fcc ${rho}
lattice fcc 1.000000
Lattice spacing in x,y,z = 1.5874 1.5874 1.5874
region simbox block 0 10 0 10 0 10
create_box 1 simbox
Created orthogonal box = (0 0 0) to (15.874 15.874 15.874)
  1 by 1 by 1 MPI processor grid
create_atoms 1 box
Created 4000 atoms

mass 1 1.0
velocity all create ${temp} 87287
velocity all create 1.000000 87287

pair_style lj/cut 3.0
pair_coeff 1 1 1.0 1.0 3.0

fix 1 all nve

dump 1 all custom 10 dump.lammpstrj id type x y z vx vy vz
thermo_style custom step temp density press
thermo 100
run 5000
Neighbor list info ...
  1 neighbor list requests
  update every 1 steps, delay 10 steps, check yes
  max neighbors/atom: 2000, page size: 100000
  master list distance cutoff = 3.3
  ghost atom cutoff = 3.3
  binsize = 1.65 -> bins = 10 10 10
Memory usage per processor = 4.27719 Mbytes
Step Temp Density Press 
       0            1            1   -3.1275513 
     100   0.51469568            1   0.56113264 
     200   0.51833548            1   0.53102638 
     300   0.52002856            1   0.52405127 
     400   0.52352481            1   0.49690223 
     500    0.5149024            1   0.55239256 
     600   0.52417837            1   0.48713839 
     700   0.52513618            1   0.48400243 
     800    0.5234671            1   0.49737882 
     900   0.52674285            1    0.4659625 
    1000   0.52265713            1    0.5068955 
    1100   0.52450954            1   0.49201643 
    1200   0.51922633            1   0.53102365 
    1300   0.52000839            1   0.51654958 
    1400    0.5202688            1   0.51217574 
    1500   0.52545035            1   0.48661501 
    1600   0.51470245            1   0.56085847 
    1700   0.52059601            1   0.51953076 
    1800   0.52244695            1   0.50803312 
    1900   0.52244865            1   0.50506805 
    2000   0.52014201            1   0.52013251 
    2100   0.52337242            1   0.48771464 
    2200   0.52808321            1   0.46600286 
    2300   0.52924674            1   0.45351754 
    2400   0.52994039            1   0.44361402 
    2500   0.51853898            1   0.52688486 
    2600    0.5290751            1   0.44865807 
    2700    0.5234324            1   0.49665725 
    2800   0.53011097            1   0.44796855 
    2900   0.51995862            1   0.52422355 
    3000   0.52049581            1   0.52006678 
    3100   0.52292326            1    0.4985111 
    3200   0.52722057            1   0.46853106 
    3300   0.52298196            1    0.4989906 
    3400   0.52207512            1   0.51131847 
    3500   0.52226173            1    0.5120562 
    3600   0.52290927            1   0.50092337 
    3700   0.51762119            1   0.53989256 
    3800   0.52149056            1   0.50841182 
    3900   0.52436586            1   0.48875686 
    4000   0.52527682            1   0.48471021 
    4100   0.51855169            1   0.53116765 
    4200   0.52481571            1   0.48213435 
    4300    0.5202565            1     0.527571 
    4400   0.52478959            1   0.48494136 
    4500   0.51954226            1   0.52822814 
    4600   0.51808285            1   0.53048665 
    4700   0.52461771            1   0.48627177 
    4800    0.5167452            1   0.55135815 
    4900   0.51184637            1   0.57788422 
    5000   0.53323587            1   0.42235023 
Loop time of 23.6613 on 1 procs for 5000 steps with 4000 atoms

Performance: 91288.294 tau/day, 211.315 timesteps/s
99.8% CPU use with 1 MPI tasks x 1 OpenMP threads

MPI task timing breakdown:
Section |  min time  |  avg time  |  max time  |%varavg| %total
---------------------------------------------------------------
Pair    | 16.193     | 16.193     | 16.193     |   0.0 | 68.44
Neigh   | 4.1035     | 4.1035     | 4.1035     |   0.0 | 17.34
Comm    | 0.22023    | 0.22023    | 0.22023    |   0.0 |  0.93
Output  | 2.9461     | 2.9461     | 2.9461     |   0.0 | 12.45
Modify  | 0.14615    | 0.14615    | 0.14615    |   0.0 |  0.62
Other   |            | 0.05257    |            |       |  0.22

Nlocal:    4000 ave 4000 max 4000 min
Histogram: 1 0 0 0 0 0 0 0 0 0
Nghost:    8129 ave 8129 max 8129 min
Histogram: 1 0 0 0 0 0 0 0 0 0
Neighs:    293997 ave 293997 max 293997 min
Histogram: 1 0 0 0 0 0 0 0 0 0

Total # of neighbors = 293997
Ave neighs/atom = 73.4993
Neighbor list builds = 488
Dangerous builds = 377
Total wall time: 0:00:23
