LAMMPS (17 Nov 2015)
WARNING: OMP_NUM_THREADS environment is not set. (../comm.cpp:90)
  using 1 OpenMP thread(s) per MPI task
# 3d Lennard-Jones gas
units lj
dimension 3
boundary p p p
atom_style atomic

lattice fcc ${rho}
lattice fcc 0.100000
Lattice spacing in x,y,z = 3.41995 3.41995 3.41995
region simbox block 0 10 0 10 0 10
create_box 1 simbox
Created orthogonal box = (0 0 0) to (34.1995 34.1995 34.1995)
  1 by 1 by 1 MPI processor grid
create_atoms 1 box
Created 4000 atoms

mass 1 1.0
velocity all create ${temp} 87287
velocity all create 3.000000 87287

pair_style lj/cut 3.0
pair_coeff 1 1 1.0 1.0 3.0

fix 1 all nve

dump 1 all custom 10 dump.lammpstrj id type x y z vx vy vz
thermo_style custom step temp density press
thermo 100
run 5000
Neighbor list info ...
  1 neighbor list requests
  update every 1 steps, delay 10 steps, check yes
  max neighbors/atom: 2000, page size: 100000
  master list distance cutoff = 3.3
  ghost atom cutoff = 3.3
  binsize = 1.65 -> bins = 21 21 21
Memory usage per processor = 4.093 Mbytes
Step Temp Density Press 
       0            3          0.1     0.276165 
     100    3.2255184          0.1   0.33795737 
     200    3.2686375          0.1   0.32935614 
     300    3.2690943          0.1   0.34995954 
     400    3.2856013          0.1   0.32805192 
     500    3.2758045          0.1   0.34371417 
     600    3.2919206          0.1   0.33914457 
     700    3.2746276          0.1   0.33879573 
     800    3.2912777          0.1   0.32951133 
     900    3.2770194          0.1   0.34466957 
    1000    3.2805716          0.1   0.33857159 
    1100    3.2920211          0.1   0.33353233 
    1200    3.2823349          0.1    0.3394244 
    1300    3.2744174          0.1   0.34252325 
    1400    3.2816605          0.1   0.33351865 
    1500     3.291629          0.1   0.33673613 
    1600    3.2908302          0.1   0.33753314 
    1700    3.2798332          0.1   0.34278663 
    1800    3.2764784          0.1   0.33881321 
    1900    3.2763301          0.1   0.34746902 
    2000    3.2788655          0.1   0.34267565 
    2100    3.2870236          0.1   0.34006597 
    2200    3.2894683          0.1   0.32953099 
    2300    3.2844435          0.1   0.33778376 
    2400    3.2939535          0.1   0.34064335 
    2500    3.2838366          0.1   0.33678653 
    2600     3.292824          0.1   0.33920983 
    2700    3.2855052          0.1   0.33674008 
    2800    3.2896292          0.1   0.33503267 
    2900    3.2985974          0.1   0.33404704 
    3000    3.2744923          0.1   0.34866043 
    3100    3.2881961          0.1   0.34489367 
    3200    3.2909274          0.1   0.33875208 
    3300    3.2948135          0.1   0.32970417 
    3400    3.2853301          0.1   0.33880752 
    3500    3.2955271          0.1   0.34072211 
    3600    3.2948863          0.1   0.33143246 
    3700    3.2986561          0.1   0.33689228 
    3800    3.2964055          0.1   0.33691584 
    3900    3.2813055          0.1   0.33154141 
    4000    3.2857218          0.1   0.33958015 
    4100    3.2987358          0.1   0.33101549 
    4200    3.2820253          0.1   0.34032683 
    4300    3.2846996          0.1   0.33695057 
    4400    3.2838148          0.1   0.33825204 
    4500    3.2915835          0.1    0.3339217 
    4600    3.2870497          0.1   0.34043009 
    4700    3.2908181          0.1   0.33680975 
    4800    3.2887082          0.1   0.34404408 
    4900    3.2745898          0.1   0.34293526 
    5000    3.2864954          0.1   0.33220837 
Loop time of 7.24465 on 1 procs for 5000 steps with 4000 atoms

Performance: 298151.133 tau/day, 690.165 timesteps/s
99.3% CPU use with 1 MPI tasks x 1 OpenMP threads

MPI task timing breakdown:
Section |  min time  |  avg time  |  max time  |%varavg| %total
---------------------------------------------------------------
Pair    | 2.1738     | 2.1738     | 2.1738     |   0.0 | 30.00
Neigh   | 1.3998     | 1.3998     | 1.3998     |   0.0 | 19.32
Comm    | 0.11243    | 0.11243    | 0.11243    |   0.0 |  1.55
Output  | 3.3862     | 3.3862     | 3.3862     |   0.0 | 46.74
Modify  | 0.1431     | 0.1431     | 0.1431     |   0.0 |  1.98
Other   |            | 0.02939    |            |       |  0.41

Nlocal:    4000 ave 4000 max 4000 min
Histogram: 1 0 0 0 0 0 0 0 0 0
Nghost:    2867 ave 2867 max 2867 min
Histogram: 1 0 0 0 0 0 0 0 0 0
Neighs:    29797 ave 29797 max 29797 min
Histogram: 1 0 0 0 0 0 0 0 0 0

Total # of neighbors = 29797
Ave neighs/atom = 7.44925
Neighbor list builds = 500
Dangerous builds = 500
Total wall time: 0:00:07
