LAMMPS (17 Nov 2015)
WARNING: OMP_NUM_THREADS environment is not set. (../comm.cpp:90)
  using 1 OpenMP thread(s) per MPI task
# 3d Lennard-Jones gas
units lj
dimension 3
boundary p p p
atom_style atomic

lattice fcc ${rho}
lattice fcc 0.010000
Lattice spacing in x,y,z = 7.36806 7.36806 7.36806
region simbox block 0 10 0 10 0 10
create_box 1 simbox
Created orthogonal box = (0 0 0) to (73.6806 73.6806 73.6806)
  1 by 1 by 1 MPI processor grid
create_atoms 1 box
Created 4000 atoms

mass 1 1.0
velocity all create ${temp} 87287
velocity all create 1.000000 87287

pair_style lj/cut 3.0
pair_coeff 1 1 1.0 1.0 3.0

fix 1 all nve

dump 1 all custom 10 dump.lammpstrj id type x y z vx vy vz
thermo_style custom step temp density press
thermo 100
run 5000
Neighbor list info ...
  1 neighbor list requests
  update every 1 steps, delay 10 steps, check yes
  max neighbors/atom: 2000, page size: 100000
  master list distance cutoff = 3.3
  ghost atom cutoff = 3.3
  binsize = 1.65 -> bins = 45 45 45
Memory usage per processor = 4.46791 Mbytes
Step Temp Density Press 
       0            1         0.01    0.0099975 
     100    1.0000001         0.01 0.0099974718 
     200    1.0037098         0.01 0.0099914669 
     300     1.025356         0.01  0.010078656 
     400    1.0290138         0.01 0.0099995713 
     500    1.0343648         0.01  0.010167783 
     600     1.034372         0.01  0.010122978 
     700    1.0345838         0.01  0.010160927 
     800    1.0348236         0.01  0.010051286 
     900    1.0363473         0.01  0.010123449 
    1000    1.0379549         0.01 0.0099662452 
    1100    1.0384284         0.01  0.010143056 
    1200    1.0425053         0.01    0.0100983 
    1300    1.0389957         0.01   0.01004898 
    1400    1.0422679         0.01 0.0099896295 
    1500    1.0377201         0.01  0.010056237 
    1600    1.0409096         0.01  0.010000494 
    1700    1.0442435         0.01  0.010182675 
    1800    1.0435829         0.01 0.0099993601 
    1900    1.0428258         0.01  0.010092922 
    2000    1.0442476         0.01  0.010118933 
    2100    1.0449341         0.01  0.010058796 
    2200    1.0463963         0.01  0.010102772 
    2300    1.0478486         0.01 0.0099847575 
    2400    1.0451106         0.01  0.009957497 
    2500    1.0462428         0.01  0.010068978 
    2600    1.0477605         0.01  0.010002805 
    2700    1.0454041         0.01 0.0099274468 
    2800    1.0454548         0.01  0.010078038 
    2900    1.0420319         0.01 0.0099273658 
    3000    1.0446662         0.01  0.010050946 
    3100     1.043175         0.01  0.010212344 
    3200    1.0487203         0.01   0.01012516 
    3300    1.0484037         0.01  0.010242968 
    3400    1.0492773         0.01  0.010123453 
    3500    1.0469783         0.01  0.010026992 
    3600    1.0429616         0.01  0.010256006 
    3700     1.043553         0.01  0.010136987 
    3800    1.0487941         0.01  0.010122948 
    3900    1.0472063         0.01  0.009970499 
    4000    1.0475549         0.01   0.01020902 
    4100    1.0501452         0.01  0.010047789 
    4200    1.0487851         0.01  0.010179827 
    4300    1.0498576         0.01  0.010091096 
    4400    1.0445982         0.01  0.010202254 
    4500    1.0444317         0.01  0.010370542 
    4600    1.0479912         0.01  0.010002848 
    4700    1.0475704         0.01 0.0099518206 
    4800    1.0506212         0.01  0.010270828 
    4900    1.0504042         0.01  0.010086279 
    5000    1.0474413         0.01  0.010166541 
Loop time of 78.4104 on 1 procs for 5000 steps with 4000 atoms

Performance: 27547.364 tau/day, 63.767 timesteps/s
5.8% CPU use with 1 MPI tasks x 1 OpenMP threads

MPI task timing breakdown:
Section |  min time  |  avg time  |  max time  |%varavg| %total
---------------------------------------------------------------
Pair    | 0.33095    | 0.33095    | 0.33095    |   0.0 |  0.42
Neigh   | 0.40972    | 0.40972    | 0.40972    |   0.0 |  0.52
Comm    | 73.845     | 73.845     | 73.845     |   0.0 | 94.18
Output  | 3.6573     | 3.6573     | 3.6573     |   0.0 |  4.66
Modify  | 0.14251    | 0.14251    | 0.14251    |   0.0 |  0.18
Other   |            | 0.02499    |            |       |  0.03

Nlocal:    4000 ave 4000 max 4000 min
Histogram: 1 0 0 0 0 0 0 0 0 0
Nghost:    1180 ave 1180 max 1180 min
Histogram: 1 0 0 0 0 0 0 0 0 0
Neighs:    3047 ave 3047 max 3047 min
Histogram: 1 0 0 0 0 0 0 0 0 0

Total # of neighbors = 3047
Ave neighs/atom = 0.76175
Neighbor list builds = 498
Dangerous builds = 478
Total wall time: 0:01:18
