LAMMPS (17 Nov 2015)
WARNING: OMP_NUM_THREADS environment is not set. (../comm.cpp:90)
  using 1 OpenMP thread(s) per MPI task
# 3d Lennard-Jones gas
units lj
dimension 3
boundary p p p
atom_style atomic

lattice fcc ${rho}
lattice fcc 0.500000
Lattice spacing in x,y,z = 2 2 2
region simbox block 0 10 0 10 0 10
create_box 1 simbox
Created orthogonal box = (0 0 0) to (20 20 20)
  1 by 1 by 1 MPI processor grid
create_atoms 1 box
Created 4000 atoms

mass 1 1.0
velocity all create ${temp} 87287
velocity all create 2.000000 87287

pair_style lj/cut 3.0
pair_coeff 1 1 1.0 1.0 3.0

fix 1 all nve

dump 1 all custom 10 dump.lammpstrj id type x y z vx vy vz
thermo_style custom step temp density press
thermo 100
run 5000
Neighbor list info ...
  1 neighbor list requests
  update every 1 steps, delay 10 steps, check yes
  max neighbors/atom: 2000, page size: 100000
  master list distance cutoff = 3.3
  ghost atom cutoff = 3.3
  binsize = 1.65 -> bins = 13 13 13
Memory usage per processor = 4.19036 Mbytes
Step Temp Density Press 
       0            2          0.5   -1.6987471 
     100    1.9402056          0.5    1.2116442 
     200    1.9383634          0.5    1.1460639 
     300     1.943407          0.5     1.189586 
     400    1.9384899          0.5    1.2129278 
     500    1.9481422          0.5    1.1605463 
     600    1.9451176          0.5    1.1754037 
     700     1.939016          0.5    1.1527166 
     800    1.9457469          0.5    1.1702912 
     900    1.9616014          0.5    1.1546136 
    1000    1.9537802          0.5    1.1160228 
    1100    1.9578038          0.5    1.1008125 
    1200    1.9495166          0.5    1.1525242 
    1300    1.9704701          0.5    1.1496754 
    1400    1.9309789          0.5    1.2763289 
    1500    1.9697838          0.5    1.1451357 
    1600    1.9483772          0.5    1.2140905 
    1700    1.9455483          0.5    1.2583107 
    1800    1.9517477          0.5    1.1657562 
    1900    1.9585409          0.5    1.1025922 
    2000     1.957815          0.5    1.1322652 
    2100    1.9400241          0.5    1.1729863 
    2200    1.9584712          0.5    1.1449163 
    2300    1.9563426          0.5    1.1291737 
    2400    1.9552857          0.5    1.1290116 
    2500    1.9522094          0.5     1.210906 
    2600    1.9484312          0.5    1.1574656 
    2700    1.9314177          0.5    1.2276867 
    2800    1.9416748          0.5    1.1800101 
    2900    1.9430536          0.5    1.1569379 
    3000    1.9565524          0.5    1.1466261 
    3100    1.9563644          0.5    1.1573095 
    3200    1.9353346          0.5    1.1973453 
    3300    1.9515827          0.5    1.0982474 
    3400    1.9228884          0.5    1.2444305 
    3500    1.9610027          0.5    1.1270044 
    3600    1.9669821          0.5    1.1403584 
    3700    1.9502184          0.5    1.2299388 
    3800     1.964523          0.5    1.1557287 
    3900    1.9595711          0.5    1.1320153 
    4000    1.9453471          0.5    1.1546188 
    4100    1.9777843          0.5    1.0887748 
    4200    1.9457326          0.5    1.2233142 
    4300    1.9341967          0.5    1.2070983 
    4400    1.9443188          0.5    1.1537709 
    4500    1.9403167          0.5    1.1855327 
    4600    1.9419232          0.5     1.176422 
    4700    1.9449378          0.5    1.1823121 
    4800    1.9395175          0.5    1.2198608 
    4900    1.9655526          0.5    1.1136694 
    5000    1.9564866          0.5    1.1075815 
Loop time of 15.1857 on 1 procs for 5000 steps with 4000 atoms

Performance: 142238.893 tau/day, 329.257 timesteps/s
99.8% CPU use with 1 MPI tasks x 1 OpenMP threads

MPI task timing breakdown:
Section |  min time  |  avg time  |  max time  |%varavg| %total
---------------------------------------------------------------
Pair    | 9.0229     | 9.0229     | 9.0229     |   0.0 | 59.42
Neigh   | 2.7579     | 2.7579     | 2.7579     |   0.0 | 18.16
Comm    | 0.17024    | 0.17024    | 0.17024    |   0.0 |  1.12
Output  | 3.0597     | 3.0597     | 3.0597     |   0.0 | 20.15
Modify  | 0.13769    | 0.13769    | 0.13769    |   0.0 |  0.91
Other   |            | 0.03734    |            |       |  0.25

Nlocal:    4000 ave 4000 max 4000 min
Histogram: 1 0 0 0 0 0 0 0 0 0
Nghost:    5422 ave 5422 max 5422 min
Histogram: 1 0 0 0 0 0 0 0 0 0
Neighs:    149220 ave 149220 max 149220 min
Histogram: 1 0 0 0 0 0 0 0 0 0

Total # of neighbors = 149220
Ave neighs/atom = 37.305
Neighbor list builds = 500
Dangerous builds = 500
Total wall time: 0:00:15
