LAMMPS (17 Nov 2015)
WARNING: OMP_NUM_THREADS environment is not set. (../comm.cpp:90)
  using 1 OpenMP thread(s) per MPI task
# 3d Lennard-Jones gas
units lj
dimension 3
boundary p p p
atom_style atomic

lattice fcc ${rho}
lattice fcc 0.050000
Lattice spacing in x,y,z = 4.30887 4.30887 4.30887
region simbox block 0 10 0 10 0 10
create_box 1 simbox
Created orthogonal box = (0 0 0) to (43.0887 43.0887 43.0887)
  1 by 1 by 1 MPI processor grid
create_atoms 1 box
Created 4000 atoms

mass 1 1.0
velocity all create ${temp} 87287
velocity all create 3.000000 87287

pair_style lj/cut 3.0
pair_coeff 1 1 1.0 1.0 3.0

fix 1 all nve

dump 1 all custom 10 dump.lammpstrj id type x y z vx vy vz
thermo_style custom step temp density press
thermo 100
run 5000
Neighbor list info ...
  1 neighbor list requests
  update every 1 steps, delay 10 steps, check yes
  max neighbors/atom: 2000, page size: 100000
  master list distance cutoff = 3.3
  ghost atom cutoff = 3.3
  binsize = 1.65 -> bins = 27 27 27
Memory usage per processor = 4.15095 Mbytes
Step Temp Density Press 
       0            3         0.05    0.1499625 
     100    3.0980038         0.05   0.16804121 
     200    3.1462493         0.05   0.16123139 
     300    3.1650445         0.05   0.15883968 
     400    3.1648441         0.05   0.16264806 
     500    3.1617437         0.05   0.16481752 
     600    3.1635189         0.05   0.16041986 
     700    3.1749938         0.05   0.15946373 
     800    3.1765682         0.05     0.158602 
     900    3.1718162         0.05   0.16197439 
    1000    3.1734632         0.05   0.15862173 
    1100    3.1786318         0.05   0.15935349 
    1200    3.1738456         0.05   0.15931434 
    1300     3.179123         0.05   0.15922819 
    1400    3.1757394         0.05   0.15981326 
    1500    3.1790814         0.05   0.16264673 
    1600    3.1812365         0.05   0.15773346 
    1700    3.1812988         0.05   0.15978997 
    1800     3.182304         0.05   0.15918497 
    1900    3.1738632         0.05    0.1628552 
    2000    3.1798274         0.05   0.15871098 
    2100      3.17585         0.05   0.15911813 
    2200     3.168682         0.05   0.15987592 
    2300    3.1736573         0.05   0.15951983 
    2400    3.1774773         0.05   0.15703731 
    2500    3.1813334         0.05   0.16113652 
    2600    3.1727137         0.05   0.15973501 
    2700    3.1763878         0.05   0.15858513 
    2800    3.1646454         0.05   0.16329129 
    2900    3.1769769         0.05   0.16050433 
    3000    3.1724727         0.05   0.16284795 
    3100    3.1771575         0.05   0.15917148 
    3200    3.1795072         0.05   0.16021618 
    3300    3.1673801         0.05   0.15933137 
    3400    3.1695312         0.05    0.1623567 
    3500    3.1749003         0.05   0.15950877 
    3600    3.1743026         0.05   0.15995954 
    3700    3.1835094         0.05   0.15797827 
    3800    3.1804277         0.05   0.15990636 
    3900     3.171632         0.05   0.16023312 
    4000    3.1847354         0.05   0.16113193 
    4100    3.1675122         0.05   0.16181415 
    4200    3.1707995         0.05   0.16079167 
    4300    3.1728762         0.05   0.16072275 
    4400    3.1775766         0.05   0.16086885 
    4500    3.1694066         0.05   0.16104239 
    4600    3.1780539         0.05   0.15973729 
    4700    3.1794304         0.05   0.15998508 
    4800    3.1750805         0.05   0.16144833 
    4900    3.1815567         0.05    0.1630476 
    5000    3.1836019         0.05   0.15947801 
Loop time of 5.80823 on 1 procs for 5000 steps with 4000 atoms

Performance: 371885.982 tau/day, 860.847 timesteps/s
99.5% CPU use with 1 MPI tasks x 1 OpenMP threads

MPI task timing breakdown:
Section |  min time  |  avg time  |  max time  |%varavg| %total
---------------------------------------------------------------
Pair    | 1.1761     | 1.1761     | 1.1761     |   0.0 | 20.25
Neigh   | 0.85862    | 0.85862    | 0.85862    |   0.0 | 14.78
Comm    | 0.093915   | 0.093915   | 0.093915   |   0.0 |  1.62
Output  | 3.5021     | 3.5021     | 3.5021     |   0.0 | 60.30
Modify  | 0.14742    | 0.14742    | 0.14742    |   0.0 |  2.54
Other   |            | 0.03002    |            |       |  0.52

Nlocal:    4000 ave 4000 max 4000 min
Histogram: 1 0 0 0 0 0 0 0 0 0
Nghost:    2076 ave 2076 max 2076 min
Histogram: 1 0 0 0 0 0 0 0 0 0
Neighs:    14953 ave 14953 max 14953 min
Histogram: 1 0 0 0 0 0 0 0 0 0

Total # of neighbors = 14953
Ave neighs/atom = 3.73825
Neighbor list builds = 500
Dangerous builds = 500
Total wall time: 0:00:05
